                         Program Version 5.0.1 -  RELEASE  -
|  1>
|  2> %pal
|  3>   nprocs 6
|  4> end
|  5> %maxcore 2000
|  6>
|  7> ! PBE aug-cc-pVTZ VeryTightSCF
|  8> ! RIJCOSX def2/J
|  9>
| 10> * xyzfile 0 1 acetaldehyde.xyz
| 11>
| 12>
| 13>                          ****END OF INPUT****

CARTESIAN COORDINATES (ANGSTROEM)
---------------------------------
  C      1.441762   -0.020280   -0.257814
  C     -0.037836    0.035108   -0.055494
  O     -0.728246    0.982027   -0.313173
  H      1.812983    0.916060   -0.671732
  H      1.931960   -0.232329    0.697630
  H      1.686979   -0.852469   -0.925179
  H     -0.490353   -0.889736    0.366481

 Total Charge           Charge          ....    0
 Multiplicity           Mult            ....    1
 Number of Electrons    NEL             ....   24
 Basis Dimension        Dim             ....  230

ORBITAL ENERGIES
----------------

  NO   OCC          E(Eh)            E(eV)
   0   2.0000     -18.758741      -510.4513
   1   2.0000      -9.976290      -271.4686
   2   2.0000      -9.898617      -269.3551
   3   2.0000      -0.971822       -26.4446
   4   2.0000      -0.691655       -18.8209
   5   2.0000      -0.526319       -14.3219
   6   2.0000      -0.433821       -11.8049
   7   2.0000      -0.408210       -11.1080
   8   2.0000      -0.392872       -10.6906
   9   2.0000      -0.357551        -9.7294
  10   2.0000      -0.335683        -9.1344
  11   2.0000      -0.218290        -5.9400
  12   0.0000      -0.072287        -1.9670
  13   0.0000      -0.019203        -0.5225
  14   0.0000       0.002005         0.0546
  15   0.0000       0.012307         0.3349
  16   0.0000       0.021370         0.5815

MULLIKEN ATOMIC CHARGES
-----------------------
   0 C :   -0.516991
   1 C :    0.012258
   2 O :   -0.486823
   3 H :    0.232536
   4 H :    0.212952
   5 H :    0.212866
   6 H :    0.333202
Sum of atomic charges:    0.0000000

LOEWDIN ATOMIC CHARGES
----------------------
   0 C :    0.548645
   1 C :   -0.273036
   2 O :    0.477321
   3 H :   -0.187614
   4 H :   -0.182796
   5 H :   -0.182832
   6 H :   -0.199687

  Mayer bond orders larger than 0.100000
B(  0-C ,  1-C ) :   0.9309 B(  0-C ,  3-H ) :   0.9225 B(  0-C ,  4-H ) :   0.9313
B(  0-C ,  5-H ) :   0.9315 B(  1-C ,  2-O ) :   1.7324 B(  1-C ,  6-H ) :   0.7817

FINAL SINGLE POINT ENERGY      -153.703397184379

DIPOLE MOMENT
-------------
                                X             Y             Z
Electronic contribution:     -2.97796       1.52547      -0.13344
Nuclear contribution   :      3.75362      -2.24617       0.29177
                        -----------------------------------------
Total Dipole Moment    :      0.77566      -0.72069       0.15833
                        -----------------------------------------
Magnitude (a.u.)       :      1.07057
Magnitude (Debye)      :      2.72117

Rotational constants in cm-1:     1.917540     0.341732     0.306399
Rotational constants in MHz : 57486.395924 10244.864772  9185.612312

                             ****ORCA TERMINATED NORMALLY****
TOTAL RUN TIME: 0 days 0 hours 0 minutes 3 seconds 608 msec
