                         Program Version 5.0.1 -  RELEASE  -
|  1>
|  2> %pal
|  3>   nprocs 6
|  4> end
|  5> %maxcore 2000
|  6>
|  7> ! B3LYP aug-cc-pVTZ VeryTightSCF
|  8> ! RIJCOSX def2/J
|  9>
| 10> * xyzfile 0 1 dimethyl_ether.xyz
| 11>
| 12>
| 13>                          ****END OF INPUT****

CARTESIAN COORDINATES (ANGSTROEM)
---------------------------------
  C      1.421150    0.000215   -0.000736
  O      0.022185    0.015743    0.027526
  C     -0.474248    0.669427    1.160610
  H      1.836379    1.018259   -0.021558
  H      1.729003   -0.524689   -0.905319
  H      1.837060   -0.522263    0.872917
  H     -0.149575    0.174382    2.087263
  H     -1.562882    0.642173    1.108511
  H     -0.145733    1.718173    1.198445

 Total Charge           Charge          ....    0
 Multiplicity           Mult            ....    1
 Number of Electrons    NEL             ....   26
 Basis Dimension        Dim             ....  276

ORBITAL ENERGIES
----------------

  NO   OCC          E(Eh)            E(eV)
   0   2.0000     -19.133586      -520.6514
   1   2.0000     -10.211761      -277.8762
   2   2.0000     -10.211737      -277.8755
   3   2.0000      -1.042625       -28.3713
   4   2.0000      -0.723783       -19.6951
   5   2.0000      -0.638325       -17.3697
   6   2.0000      -0.481815       -13.1109
   7   2.0000      -0.475622       -12.9423
   8   2.0000      -0.474911       -12.9230
   9   2.0000      -0.395777       -10.7696
  10   2.0000      -0.378172       -10.2906
  11   2.0000      -0.325009        -8.8439
  12   2.0000      -0.263095        -7.1592
  13   0.0000      -0.007568        -0.2059
  14   0.0000       0.010927         0.2973
  15   0.0000       0.020198         0.5496
  16   0.0000       0.021518         0.5855
  17   0.0000       0.038781         1.0553

MULLIKEN ATOMIC CHARGES
-----------------------
   0 C :   -0.553655
   1 O :   -0.434977
   2 C :   -0.555655
   3 H :    0.251495
   4 H :    0.264777
   5 H :    0.255411
   6 H :    0.250114
   7 H :    0.268979
   8 H :    0.253511
Sum of atomic charges:   -0.0000000

LOEWDIN ATOMIC CHARGES
----------------------
   0 C :    0.275697
   1 O :    0.548997
   2 C :    0.275431
   3 H :   -0.181041
   4 H :   -0.187903
   5 H :   -0.181108
   6 H :   -0.181097
   7 H :   -0.187882
   8 H :   -0.181093

  Mayer bond orders larger than 0.100000
B(  0-C ,  1-O ) :   0.9131 B(  0-C ,  3-H ) :   0.9056 B(  0-C ,  4-H ) :   0.9570
B(  0-C ,  5-H ) :   0.9004 B(  1-O ,  2-C ) :   0.9171 B(  2-C ,  6-H ) :   0.9061
B(  2-C ,  7-H ) :   0.9519 B(  2-C ,  8-H ) :   0.9023

FINAL SINGLE POINT ENERGY      -154.997759919658

DIPOLE MOMENT
-------------
                                X             Y             Z
Electronic contribution:     -1.17242      -0.82877      -1.43507
Nuclear contribution   :      1.45098       1.02567       1.77571
                        -----------------------------------------
Total Dipole Moment    :      0.27857       0.19690       0.34064
                        -----------------------------------------
Magnitude (a.u.)       :      0.48209
Magnitude (Debye)      :      1.22537

Rotational constants in cm-1:     1.317439     0.339128     0.300454
Rotational constants in MHz : 39495.829313 10166.792810  9007.384184

                             ****ORCA TERMINATED NORMALLY****
TOTAL RUN TIME: 0 days 0 hours 0 minutes 14 seconds 593 msec
