                         Program Version 5.0.1 -  RELEASE  -
|  1>
|  2> %pal
|  3>   nprocs 6
|  4> end
|  5> %maxcore 2000
|  6>
|  7> ! PBE aug-cc-pVTZ VeryTightSCF
|  8> ! RIJCOSX def2/J
|  9>
| 10> * xyzfile 0 1 dimethyl_ether.xyz
| 11>
| 12>
| 13>                          ****END OF INPUT****

CARTESIAN COORDINATES (ANGSTROEM)
---------------------------------
  C      1.421150    0.000215   -0.000736
  O      0.022185    0.015743    0.027526
  C     -0.474248    0.669427    1.160610
  H      1.836379    1.018259   -0.021558
  H      1.729003   -0.524689   -0.905319
  H      1.837060   -0.522263    0.872917
  H     -0.149575    0.174382    2.087263
  H     -1.562882    0.642173    1.108511
  H     -0.145733    1.718173    1.198445

 Total Charge           Charge          ....    0
 Multiplicity           Mult            ....    1
 Number of Electrons    NEL             ....   26
 Basis Dimension        Dim             ....  276

ORBITAL ENERGIES
----------------

  NO   OCC          E(Eh)            E(eV)
   0   2.0000     -18.762934      -510.5654
   1   2.0000      -9.922752      -270.0118
   2   2.0000      -9.922730      -270.0112
   3   2.0000      -0.957867       -26.0649
   4   2.0000      -0.659007       -17.9325
   5   2.0000      -0.575425       -15.6581
   6   2.0000      -0.436404       -11.8752
   7   2.0000      -0.425904       -11.5894
   8   2.0000      -0.422928       -11.5084
   9   2.0000      -0.350388        -9.5345
  10   2.0000      -0.334024        -9.0893
  11   2.0000      -0.279972        -7.6184
  12   2.0000      -0.216554        -5.8927
  13   0.0000      -0.017444        -0.4747
  14   0.0000       0.004295         0.1169
  15   0.0000       0.013156         0.3580
  16   0.0000       0.014039         0.3820
  17   0.0000       0.024914         0.6780

MULLIKEN ATOMIC CHARGES
-----------------------
   0 C :   -0.552860
   1 O :   -0.363843
   2 C :   -0.552560
   3 H :    0.237121
   4 H :    0.260360
   5 H :    0.237317
   6 H :    0.236733
   7 H :    0.260400
   8 H :    0.237331
Sum of atomic charges:    0.0000000

LOEWDIN ATOMIC CHARGES
----------------------
   0 C :    0.272381
   1 O :    0.563640
   2 C :    0.272164
   3 H :   -0.182736
   4 H :   -0.188559
   5 H :   -0.182794
   6 H :   -0.182770
   7 H :   -0.188553
   8 H :   -0.182774

  Mayer bond orders larger than 0.100000
B(  0-C ,  1-O ) :   0.9524 B(  0-C ,  3-H ) :   0.9011 B(  0-C ,  4-H ) :   0.9374
B(  0-C ,  5-H ) :   0.9007 B(  1-O ,  2-C ) :   0.9526 B(  2-C ,  6-H ) :   0.9014
B(  2-C ,  7-H ) :   0.9372 B(  2-C ,  8-H ) :   0.9007

FINAL SINGLE POINT ENERGY      -154.887235886499

DIPOLE MOMENT
-------------
                                X             Y             Z
Electronic contribution:     -1.19750      -0.84656      -1.46572
Nuclear contribution   :      1.45098       1.02567       1.77571
                        -----------------------------------------
Total Dipole Moment    :      0.25348       0.17911       0.30999
                        -----------------------------------------
Magnitude (a.u.)       :      0.43867
Magnitude (Debye)      :      1.11500

Rotational constants in cm-1:     1.317439     0.339128     0.300454
Rotational constants in MHz : 39495.829313 10166.792810  9007.384184

                             ****ORCA TERMINATED NORMALLY****
TOTAL RUN TIME: 0 days 0 hours 0 minutes 6 seconds 82 msec
