                         Program Version 5.0.1 -  RELEASE  -
|  1>
|  2> %pal
|  3>   nprocs 6
|  4> end
|  5> %maxcore 2000
|  6>
|  7> ! MP2 aug-cc-pVTZ VeryTightSCF
|  8> ! RIJCOSX def2/J aug-cc-pVTZ/C
|  9>
| 10> %mp2
| 11>   density unrelaxed
| 12> end
| 13>
| 14> * xyzfile 0 2 nitrogen_monoxide.xyz
| 15>
| 16>
| 17>                          ****END OF INPUT****

CARTESIAN COORDINATES (ANGSTROEM)
---------------------------------
  N    -27.883207   12.166670    0.000000
  O    -26.743453   12.166670    0.000000

 Total Charge           Charge          ....    0
 Multiplicity           Mult            ....    2
 Number of Electrons    NEL             ....   15
 Basis Dimension        Dim             ....   92

ORBITAL ENERGIES
----------------
                 SPIN UP ORBITALS
  NO   OCC          E(Eh)            E(eV)
   0   1.0000     -20.703581      -563.3731
   1   1.0000     -15.733425      -428.1283
   2   1.0000      -1.626310       -44.2542
   3   1.0000      -0.969283       -26.3755
   4   1.0000      -0.795834       -21.6557
   5   1.0000      -0.703271       -19.1370
   6   1.0000      -0.656125       -17.8541
   7   1.0000      -0.423215       -11.5163
   8   0.0000       0.074553         2.0287
   9   0.0000       0.084785         2.3071
  10   0.0000       0.118273         3.2184
  11   0.0000       0.124732         3.3941
  12   0.0000       0.134225         3.6525

                 SPIN DOWN ORBITALS
  NO   OCC          E(Eh)            E(eV)
   0   1.0000     -20.692268      -563.0653
   1   1.0000     -15.701711      -427.2653
   2   1.0000      -1.588447       -43.2239
   3   1.0000      -0.885793       -24.1036
   4   1.0000      -0.662576       -18.0296
   5   1.0000      -0.656244       -17.8573
   6   1.0000      -0.617843       -16.8124
   7   0.0000       0.085294         2.3210
   8   0.0000       0.085720         2.3326
   9   0.0000       0.105711         2.8766
  10   0.0000       0.121536         3.3072
  11   0.0000       0.148214         4.0331

MULLIKEN ATOMIC CHARGES AND SPIN DENSITIES
------------------------------------------
   0 N :    0.123261    0.866018
   1 O :   -0.123261    0.133982
Sum of atomic charges       :    0.0000000

LOEWDIN ATOMIC CHARGES AND SPIN DENSITIES
-----------------------------------------
   0 N :   -0.074760    0.707729
   1 O :    0.074760    0.292271

  Mayer bond orders larger than 0.100000
B(  0-N ,  1-O ) :   1.7034

MP2 TOTAL ENERGY:     -129.702541896 Eh
FINAL SINGLE POINT ENERGY      -129.702541895777

DIPOLE MOMENT
-------------
                                X             Y             Z
Electronic contribution:     -0.04673       0.00000       0.00000
Nuclear contribution   :      0.00452       0.00000       0.00000
                        -----------------------------------------
Total Dipole Moment    :     -0.04221       0.00000       0.00000
                        -----------------------------------------
Magnitude (a.u.)       :      0.04221
Magnitude (Debye)      :      0.10728

Rotational constants in cm-1:     0.000000     1.737578     1.737578
Rotational constants in MHz :     0.000000 52091.291729 52091.291729

                             ****ORCA TERMINATED NORMALLY****
TOTAL RUN TIME: 0 days 0 hours 0 minutes 2 seconds 269 msec
