                         Program Version 5.0.1 -  RELEASE  -
|  1>
|  2> %pal
|  3>   nprocs 6
|  4> end
|  5> %maxcore 2000
|  6>
|  7> ! MP2 aug-cc-pVTZ VeryTightSCF
|  8> ! RIJCOSX def2/J aug-cc-pVTZ/C
|  9>
| 10> %mp2
| 11>   density unrelaxed
| 12> end
| 13>
| 14> * xyzfile 0 1 water.xyz
| 15>
| 16>
| 17>                          ****END OF INPUT****

CARTESIAN COORDINATES (ANGSTROEM)
---------------------------------
  O     -0.006862   -0.009729    0.000000
  H     -0.291730    0.906540    0.000000
  H      0.951933    0.027139    0.000000

 Total Charge           Charge          ....    0
 Multiplicity           Mult            ....    1
 Number of Electrons    NEL             ....   10
 Basis Dimension        Dim             ....   92

ORBITAL ENERGIES
----------------

  NO   OCC          E(Eh)            E(eV)
   0   2.0000     -20.567310      -559.6650
   1   2.0000      -1.352081       -36.7920
   2   2.0000      -0.717711       -19.5299
   3   2.0000      -0.583428       -15.8759
   4   2.0000      -0.510008       -13.8780
   5   0.0000       0.029879         0.8130
   6   0.0000       0.048095         1.3087
   7   0.0000       0.136224         3.7069
   8   0.0000       0.158653         4.3172
   9   0.0000       0.174885         4.7589

MULLIKEN ATOMIC CHARGES
-----------------------
   0 O :   -0.431151
   1 H :    0.215963
   2 H :    0.215189
Sum of atomic charges:   -0.0000000

LOEWDIN ATOMIC CHARGES
----------------------
   0 O :    1.025092
   1 H :   -0.512475
   2 H :   -0.512617

  Mayer bond orders larger than 0.100000
B(  0-O ,  1-H ) :   0.9418 B(  0-O ,  2-H ) :   0.9431

MP2 TOTAL ENERGY:      -76.329117042 Eh
FINAL SINGLE POINT ENERGY       -76.329117042118

DIPOLE MOMENT
-------------
                                X             Y             Z
Electronic contribution:     -0.12173      -0.17203      -0.00000
Nuclear contribution   :      0.56095       0.79335       0.00000
                        -----------------------------------------
Total Dipole Moment    :      0.43922       0.62132      -0.00000
                        -----------------------------------------
Magnitude (a.u.)       :      0.76089
Magnitude (Debye)      :      1.93403

Rotational constants in cm-1:    27.639122    14.416842     9.474729
Rotational constants in MHz : 828600.029089 432206.038942 284045.219578

                             ****ORCA TERMINATED NORMALLY****
TOTAL RUN TIME: 0 days 0 hours 0 minutes 1 seconds 965 msec
