                         Program Version 5.0.1 -  RELEASE  -
|  1>
|  2> %pal
|  3>   nprocs 6
|  4> end
|  5> %maxcore 2000
|  6>
|  7> ! PBE0 def2-TZVP TightOPT Freq
|  8> ! RIJCOSX def2/J
|  9>
| 10> * xyzfile 0 1 acetone.xyz
| 11>
| 12>
| 13>                          ****END OF INPUT****
 Total Charge           Charge          ....    0
 Multiplicity           Mult            ....    1
 Number of Electrons    NEL             ....   32
FINAL SINGLE POINT ENERGY      -192.998697708422
FINAL SINGLE POINT ENERGY      -193.002326484605
FINAL SINGLE POINT ENERGY      -193.003091836318
FINAL SINGLE POINT ENERGY      -193.003136514251
FINAL SINGLE POINT ENERGY      -193.003142411244
FINAL SINGLE POINT ENERGY      -193.003142671972
FINAL SINGLE POINT ENERGY      -193.003142309114
FINAL SINGLE POINT ENERGY      -193.003141596573
FINAL SINGLE POINT ENERGY      -193.003138437951
FINAL SINGLE POINT ENERGY      -193.003133606040
FINAL SINGLE POINT ENERGY      -193.003128581753
FINAL SINGLE POINT ENERGY      -193.003127300497
FINAL SINGLE POINT ENERGY      -193.003127595651
                    ***********************HURRAY********************

CARTESIAN COORDINATES (ANGSTROEM)
---------------------------------
  C      0.106474   -1.346767    0.711222
  C      0.095987   -0.265756   -0.337712
  C      1.322464   -0.164144   -1.207052
  O     -0.847125    0.472222   -0.479154
  H     -0.825316   -1.329454    1.273255
  H      0.237056   -2.325803    0.241198
  H      0.952178   -1.208267    1.390518
  H      1.429999   -1.076538   -1.801306
  H      2.224161   -0.079433   -0.594775
  H      1.240061    0.694030   -1.871333

 Multiplicity           Mult            ....    1
 Number of Electrons    NEL             ....   32
 Basis Dimension        Dim             ....  160

ORBITAL ENERGIES
----------------

  NO   OCC          E(Eh)            E(eV)
   0   2.0000     -19.192856      -522.2642
   1   2.0000     -10.313280      -280.6386
   2   2.0000     -10.226619      -278.2805
   3   2.0000     -10.226512      -278.2775
   4   2.0000      -1.074798       -29.2467
   5   2.0000      -0.797497       -21.7010
   6   2.0000      -0.736052       -20.0290
   7   2.0000      -0.552495       -15.0341
   8   2.0000      -0.480932       -13.0868
   9   2.0000      -0.479398       -13.0451
  10   2.0000      -0.470877       -12.8132
  11   2.0000      -0.418361       -11.3842
  12   2.0000      -0.412593       -11.2272
  13   2.0000      -0.394398       -10.7321
  14   2.0000      -0.367861       -10.0100
  15   2.0000      -0.265252        -7.2179
  16   0.0000      -0.011711        -0.3187
  17   0.0000       0.036453         0.9919
  18   0.0000       0.090574         2.4647
  19   0.0000       0.104835         2.8527
  20   0.0000       0.108181         2.9437

MULLIKEN ATOMIC CHARGES
-----------------------
   0 C :   -0.341841
   1 C :    0.177117
   2 C :   -0.342346
   3 O :   -0.290681
   4 H :    0.140944
   5 H :    0.128158
   6 H :    0.129475
   7 H :    0.130551
   8 H :    0.127377
   9 H :    0.141245
Sum of atomic charges:   -0.0000000

LOEWDIN ATOMIC CHARGES
----------------------
   0 C :   -0.273483
   1 C :   -0.397314
   2 C :   -0.273487
   3 O :    0.132352
   4 H :    0.133216
   5 H :    0.136643
   6 H :    0.136094
   7 H :    0.137960
   8 H :    0.134764
   9 H :    0.133256

  Mayer bond orders larger than 0.100000
B(  0-C ,  1-C ) :   0.9857 B(  0-C ,  4-H ) :   0.9660 B(  0-C ,  5-H ) :   0.9423
B(  0-C ,  6-H ) :   0.9438 B(  1-C ,  2-C ) :   0.9850 B(  1-C ,  3-O ) :   2.1416
B(  2-C ,  7-H ) :   0.9414 B(  2-C ,  8-H ) :   0.9449 B(  2-C ,  9-H ) :   0.9659

FINAL SINGLE POINT ENERGY      -193.003127469098

DIPOLE MOMENT
-------------
                                X             Y             Z
Electronic contribution:     -3.02453       2.40074      -0.43438
Nuclear contribution   :      3.94268      -3.12812       0.56596
                        -----------------------------------------
Total Dipole Moment    :      0.91816      -0.72738       0.13158
                        -----------------------------------------
Magnitude (a.u.)       :      1.17873
Magnitude (Debye)      :      2.99610

VIBRATIONAL FREQUENCIES
-----------------------

Scaling factor for frequencies =  1.000000000  (already applied!)

   0:         0.00 cm**-1
   1:         0.00 cm**-1
   2:         0.00 cm**-1
   3:         0.00 cm**-1
   4:         0.00 cm**-1
   5:         0.00 cm**-1
   6:        25.42 cm**-1
   7:       133.45 cm**-1
   8:       378.17 cm**-1
   9:       490.58 cm**-1
  10:       537.48 cm**-1
  11:       804.37 cm**-1
  12:       872.02 cm**-1
  13:       889.39 cm**-1
  14:      1079.68 cm**-1
  15:      1115.81 cm**-1
  16:      1245.48 cm**-1
  17:      1375.46 cm**-1
  18:      1385.25 cm**-1
  19:      1448.84 cm**-1
  20:      1454.57 cm**-1
  21:      1460.54 cm**-1
  22:      1478.34 cm**-1
  23:      1824.87 cm**-1
  24:      3048.92 cm**-1
  25:      3055.28 cm**-1
  26:      3114.31 cm**-1
  27:      3121.15 cm**-1
  28:      3170.86 cm**-1
  29:      3172.07 cm**-1

IR SPECTRUM
-----------

 Mode   freq       eps      Int      T**2         TX        TY        TZ
       cm**-1   L/(mol*cm) km/mol    a.u.
----------------------------------------------------------------------------
  6:     25.42   0.000000    0.00  0.000006  (-0.000401  0.002246 -0.000842)
  7:    133.45   0.000003    0.01  0.000007  (-0.000632  0.002502  0.000112)
  8:    378.17   0.000320    1.62  0.000264  (-0.012686  0.009983 -0.001820)
  9:    490.58   0.000064    0.32  0.000041  (-0.001942 -0.003521 -0.004945)
 10:    537.48   0.002918   14.74  0.001694  (-0.019534 -0.019180  0.030733)
 11:    804.37   0.000304    1.54  0.000118  (-0.008430  0.006809 -0.000711)
 12:    872.02   0.000089    0.45  0.000032  (-0.003027 -0.001967  0.004335)
 13:    889.39   0.001090    5.51  0.000382  (-0.008722 -0.008715  0.015175)
 14:   1079.68   0.000001    0.01  0.000000  (-0.000435  0.000385 -0.000309)
 15:   1115.81   0.000658    3.32  0.000184  ( 0.003758  0.009179  0.009247)
 16:   1245.48   0.011818   59.73  0.002961  (-0.025781 -0.024967  0.040904)
 17:   1375.46   0.004143   20.94  0.000940  ( 0.023359 -0.019684  0.002638)
 18:   1385.25   0.016373   82.74  0.003689  ( 0.028122  0.027317 -0.046384)
 19:   1448.84   0.000105    0.53  0.000023  (-0.002749 -0.002557  0.002904)
 20:   1454.57   0.000219    1.10  0.000047  ( 0.005990 -0.003280 -0.000499)
 21:   1460.54   0.005677   28.69  0.001213  ( 0.027595 -0.020673  0.004912)
 22:   1478.34   0.004607   23.28  0.000972  ( 0.012414  0.020899  0.019532)
 23:   1824.87   0.037407  189.04  0.006397  (-0.062334  0.049288 -0.009055)
 24:   3048.92   0.000141    0.71  0.000014  ( 0.001658  0.001725 -0.002958)
 25:   3055.28   0.000984    4.97  0.000100  ( 0.007604 -0.006483  0.000803)
 26:   3114.31   0.000021    0.11  0.000002  ( 0.001123 -0.000631 -0.000687)
 27:   3121.15   0.002588   13.08  0.000259  (-0.007767 -0.009594 -0.010314)
 28:   3170.86   0.001912    9.66  0.000188  (-0.006136 -0.006742  0.010252)
 29:   3172.07   0.001039    5.25  0.000102  ( 0.008291 -0.005747  0.000690)

--------------------------
THERMOCHEMISTRY AT 298.15K
--------------------------

Temperature         ... 298.15 K
Pressure            ... 1.00 atm
Total Mass          ... 58.08 AMU

Throughout the following assumptions are being made:
  (1) The electronic state is orbitally nondegenerate
  (2) There are no thermally accessible electronically excited states
  (3) Hindered rotations indicated by low frequency modes are not
      treated as such but are treated as vibrations and this may
      cause some error
  (4) All equations used are the standard statistical mechanics
      equations for an ideal gas
  (5) All vibrations are strictly harmonic

freq.      25.42  E(vib)   ...       0.56
freq.     133.45  E(vib)   ...       0.42
freq.     378.17  E(vib)   ...       0.21
freq.     490.58  E(vib)   ...       0.15
freq.     537.48  E(vib)   ...       0.12
freq.     804.37  E(vib)   ...       0.05
freq.     872.02  E(vib)   ...       0.04
freq.     889.39  E(vib)   ...       0.04
freq.    1079.68  E(vib)   ...       0.02
freq.    1115.81  E(vib)   ...       0.01
freq.    1245.48  E(vib)   ...       0.01
freq.    1375.46  E(vib)   ...       0.01
freq.    1385.25  E(vib)   ...       0.00
freq.    1448.84  E(vib)   ...       0.00
freq.    1454.57  E(vib)   ...       0.00
freq.    1460.54  E(vib)   ...       0.00
freq.    1478.34  E(vib)   ...       0.00
freq.    1824.87  E(vib)   ...       0.00
freq.    3048.92  E(vib)   ...       0.00
freq.    3055.28  E(vib)   ...       0.00
freq.    3114.31  E(vib)   ...       0.00
freq.    3121.15  E(vib)   ...       0.00
freq.    3170.86  E(vib)   ...       0.00
freq.    3172.07  E(vib)   ...       0.00

------------
INNER ENERGY
------------

The inner energy is: U= E(el) + E(ZPE) + E(vib) + E(rot) + E(trans)
    E(el)   - is the total energy from the electronic structure calculation
              = E(kin-el) + E(nuc-el) + E(el-el) + E(nuc-nuc)
    E(ZPE)  - the the zero temperature vibrational energy from the frequency calculation
    E(vib)  - the the finite temperature correction to E(ZPE) due to population
              of excited vibrational states
    E(rot)  - is the rotational thermal energy
    E(trans)- is the translational thermal energy

Summary of contributions to the inner energy U:
Electronic energy                ...   -193.00312747 Eh
Zero point energy                ...      0.08356851 Eh      52.44 kcal/mol
Thermal vibrational correction   ...      0.00261866 Eh       1.64 kcal/mol
Thermal rotational correction    ...      0.00141627 Eh       0.89 kcal/mol
Thermal translational correction ...      0.00141627 Eh       0.89 kcal/mol
-----------------------------------------------------------------------
Total thermal energy                   -192.91410776 Eh

Summary of corrections to the electronic energy:
(perhaps to be used in another calculation)
Total thermal correction                  0.00545120 Eh       3.42 kcal/mol
Non-thermal (ZPE) correction              0.08356851 Eh      52.44 kcal/mol
-----------------------------------------------------------------------
Total correction                          0.08901971 Eh      55.86 kcal/mol

--------
ENTHALPY
--------

The enthalpy is H = U + kB*T
                kB is Boltzmann's constant
Total free energy                 ...   -192.91410776 Eh
Thermal Enthalpy correction       ...      0.00094421 Eh       0.59 kcal/mol
-----------------------------------------------------------------------
Total Enthalpy                    ...   -192.91316355 Eh

Note: Only C1 symmetry has been detected, increase convergence thresholds
      if your molecule has a higher symmetry. Symmetry factor of 1.0 is
      used for the rotational entropy correction.

Note: Rotational entropy computed according to Herzberg
Infrared and Raman Spectra, Chapter V,1, Van Nostrand Reinhold, 1945
Point Group:  C1, Symmetry Number:   1
Rotational constants in cm-1:     0.341435     0.287079     0.165459

Vibrational entropy computed according to the QRRHO of S. Grimme
Chem.Eur.J. 2012 18 9955

-------
ENTROPY
-------

The entropy contributions are T*S = T*(S(el)+S(vib)+S(rot)+S(trans))
     S(el)   - electronic entropy
     S(vib)  - vibrational entropy
     S(rot)  - rotational entropy
     S(trans)- translational entropy
The entropies will be listed as multiplied by the temperature to get
units of energy

Electronic entropy                ...      0.00000000 Eh      0.00 kcal/mol
Vibrational entropy               ...      0.00480308 Eh      3.01 kcal/mol
Rotational entropy                ...      0.01145659 Eh      7.19 kcal/mol
Translational entropy             ...      0.01810171 Eh     11.36 kcal/mol
-----------------------------------------------------------------------
Final entropy term                ...      0.03436138 Eh     21.56 kcal/mol

In case the symmetry of your molecule has not been determined correctly
or in case you have a reason to use a different symmetry number we print
out the resulting rotational entropy values for sn=1,12 :
 --------------------------------------------------------
|  sn= 1 | S(rot)=       0.01145659 Eh      7.19 kcal/mol|
|  sn= 2 | S(rot)=       0.01080213 Eh      6.78 kcal/mol|
|  sn= 3 | S(rot)=       0.01041930 Eh      6.54 kcal/mol|
|  sn= 4 | S(rot)=       0.01014768 Eh      6.37 kcal/mol|
|  sn= 5 | S(rot)=       0.00993699 Eh      6.24 kcal/mol|
|  sn= 6 | S(rot)=       0.00976484 Eh      6.13 kcal/mol|
|  sn= 7 | S(rot)=       0.00961930 Eh      6.04 kcal/mol|
|  sn= 8 | S(rot)=       0.00949322 Eh      5.96 kcal/mol|
|  sn= 9 | S(rot)=       0.00938201 Eh      5.89 kcal/mol|
|  sn=10 | S(rot)=       0.00928253 Eh      5.82 kcal/mol|
|  sn=11 | S(rot)=       0.00919254 Eh      5.77 kcal/mol|
|  sn=12 | S(rot)=       0.00911039 Eh      5.72 kcal/mol|
 --------------------------------------------------------

-------------------
GIBBS FREE ENERGY
-------------------

The Gibbs free energy is G = H - T*S

Total enthalpy                    ...   -192.91316355 Eh
Total entropy correction          ...     -0.03436138 Eh    -21.56 kcal/mol
-----------------------------------------------------------------------
Final Gibbs free energy         ...   -192.94752493 Eh

For completeness - the Gibbs free energy minus the electronic energy
G-E(el)                           ...      0.05560254 Eh     34.89 kcal/mol

                             ****ORCA TERMINATED NORMALLY****
TOTAL RUN TIME: 0 days 0 hours 2 minutes 18 seconds 435 msec
