                         Program Version 5.0.1 -  RELEASE  -
|  1>
|  2> %pal
|  3>   nprocs 6
|  4> end
|  5> %maxcore 2000
|  6>
|  7> ! PBE aug-cc-pVTZ VeryTightSCF
|  8> ! RIJCOSX def2/J
|  9>
| 10> * xyzfile 0 1 carbon_monoxide.xyz
| 11>
| 12>
| 13>                          ****END OF INPUT****

CARTESIAN COORDINATES (ANGSTROEM)
---------------------------------
  C    -27.875039   12.166670    0.000000
  O    -26.751621   12.166670    0.000000

 Total Charge           Charge          ....    0
 Multiplicity           Mult            ....    1
 Number of Electrons    NEL             ....   14
 Basis Dimension        Dim             ....   92

ORBITAL ENERGIES
----------------

  NO   OCC          E(Eh)            E(eV)
   0   2.0000     -18.862354      -513.2708
   1   2.0000      -9.999589      -272.1026
   2   2.0000      -1.081027       -29.4162
   3   2.0000      -0.519596       -14.1389
   4   2.0000      -0.437591       -11.9075
   5   2.0000      -0.437591       -11.9075
   6   2.0000      -0.331860        -9.0304
   7   0.0000      -0.071968        -1.9583
   8   0.0000      -0.071968        -1.9583
   9   0.0000       0.015940         0.4337
  10   0.0000       0.042190         1.1480
  11   0.0000       0.047519         1.2931

MULLIKEN ATOMIC CHARGES
-----------------------
   0 C :    0.075424
   1 O :   -0.075424
Sum of atomic charges:    0.0000000

LOEWDIN ATOMIC CHARGES
----------------------
   0 C :   -0.193892
   1 O :    0.193892

  Mayer bond orders larger than 0.100000
B(  0-C ,  1-O ) :   2.5657

FINAL SINGLE POINT ENERGY      -113.230294825325

DIPOLE MOMENT
-------------
                                X             Y             Z
Electronic contribution:      0.08694       0.00000      -0.00000
Nuclear contribution   :      0.00712       0.00000       0.00000
                        -----------------------------------------
Total Dipole Moment    :      0.09407       0.00000      -0.00000
                        -----------------------------------------
Magnitude (a.u.)       :      0.09407
Magnitude (Debye)      :      0.23909

Rotational constants in cm-1:     0.000000     1.946953     1.946953
Rotational constants in MHz :     0.000000 58368.172843 58368.172843

                             ****ORCA TERMINATED NORMALLY****
TOTAL RUN TIME: 0 days 0 hours 0 minutes 1 seconds 502 msec
