                         Program Version 5.0.1 -  RELEASE  -
|  1>
|  2> %pal
|  3>   nprocs 6
|  4> end
|  5> %maxcore 2000
|  6>
|  7> ! PBE aug-cc-pVTZ VeryTightSCF
|  8> ! RIJCOSX def2/J
|  9>
| 10> * xyzfile 0 2 nitrogen_monoxide.xyz
| 11>
| 12>
| 13>                          ****END OF INPUT****

CARTESIAN COORDINATES (ANGSTROEM)
---------------------------------
  N    -27.883207   12.166670    0.000000
  O    -26.743453   12.166670    0.000000

 Total Charge           Charge          ....    0
 Multiplicity           Mult            ....    2
 Number of Electrons    NEL             ....   15
 Basis Dimension        Dim             ....   92

ORBITAL ENERGIES
----------------
                 SPIN UP ORBITALS
  NO   OCC          E(Eh)            E(eV)
   0   1.0000     -18.894232      -514.1382
   1   1.0000     -14.118941      -384.1959
   2   1.0000      -1.166785       -31.7498
   3   1.0000      -0.620707       -16.8903
   4   1.0000      -0.479934       -13.0597
   5   1.0000      -0.478249       -13.0138
   6   1.0000      -0.432991       -11.7823
   7   1.0000      -0.162185        -4.4133
   8   0.0000      -0.151695        -4.1278
   9   0.0000       0.019746         0.5373
  10   0.0000       0.051771         1.4088
  11   0.0000       0.057299         1.5592
  12   0.0000       0.061105         1.6628

                 SPIN DOWN ORBITALS
  NO   OCC          E(Eh)            E(eV)
   0   1.0000     -18.885311      -513.8954
   1   1.0000     -14.105467      -383.8293
   2   1.0000      -1.150453       -31.3054
   3   1.0000      -0.593642       -16.1538
   4   1.0000      -0.469209       -12.7678
   5   1.0000      -0.431611       -11.7447
   6   1.0000      -0.412558       -11.2263
   7   0.0000      -0.137112        -3.7310
   8   0.0000      -0.093589        -2.5467
   9   0.0000       0.025948         0.7061
  10   0.0000       0.061531         1.6744
  11   0.0000       0.065387         1.7793

MULLIKEN ATOMIC CHARGES AND SPIN POPULATIONS
--------------------------------------------
   0 N :    0.079272    0.698501
   1 O :   -0.079272    0.301499
Sum of atomic charges         :    0.0000000

LOEWDIN ATOMIC CHARGES AND SPIN POPULATIONS
-------------------------------------------
   0 N :   -0.100593    0.604575
   1 O :    0.100593    0.395425

  Mayer bond orders larger than 0.100000
B(  0-N ,  1-O ) :   2.0233

FINAL SINGLE POINT ENERGY      -129.811689921275

DIPOLE MOMENT
-------------
                                X             Y             Z
Electronic contribution:      0.10137       0.00000       0.00000
Nuclear contribution   :      0.00452       0.00000       0.00000
                        -----------------------------------------
Total Dipole Moment    :      0.10589       0.00000       0.00000
                        -----------------------------------------
Magnitude (a.u.)       :      0.10589
Magnitude (Debye)      :      0.26916

Rotational constants in cm-1:     0.000000     1.737578     1.737578
Rotational constants in MHz :     0.000000 52091.291729 52091.291729

                             ****ORCA TERMINATED NORMALLY****
TOTAL RUN TIME: 0 days 0 hours 0 minutes 0 seconds 620 msec
