                         Program Version 5.0.1 -  RELEASE  -
|  1>
|  2> %pal
|  3>   nprocs 6
|  4> end
|  5> %maxcore 2000
|  6>
|  7> ! B3LYP aug-cc-pVTZ VeryTightSCF
|  8> ! RIJCOSX def2/J
|  9>
| 10> * xyzfile 0 1 carbon_monoxide.xyz
| 11>
| 12>
| 13>                          ****END OF INPUT****

CARTESIAN COORDINATES (ANGSTROEM)
---------------------------------
  C    -27.875039   12.166670    0.000000
  O    -26.751621   12.166670    0.000000

 Total Charge           Charge          ....    0
 Multiplicity           Mult            ....    1
 Number of Electrons    NEL             ....   14
 Basis Dimension        Dim             ....   92

ORBITAL ENERGIES
----------------

  NO   OCC          E(Eh)            E(eV)
   0   2.0000     -19.239466      -523.5325
   1   2.0000     -10.293204      -280.0923
   2   2.0000      -1.173167       -31.9235
   3   2.0000      -0.581590       -15.8259
   4   2.0000      -0.483378       -13.1534
   5   2.0000      -0.483378       -13.1534
   6   2.0000      -0.383126       -10.4254
   7   0.0000      -0.036604        -0.9961
   8   0.0000      -0.036604        -0.9961
   9   0.0000       0.024682         0.6716
  10   0.0000       0.047545         1.2938
  11   0.0000       0.056318         1.5325

MULLIKEN ATOMIC CHARGES
-----------------------
   0 C :    0.090733
   1 O :   -0.090733
Sum of atomic charges:    0.0000000

LOEWDIN ATOMIC CHARGES
----------------------
   0 C :   -0.183884
   1 O :    0.183884

  Mayer bond orders larger than 0.100000
B(  0-C ,  1-O ) :   2.4295

FINAL SINGLE POINT ENERGY      -113.306645601715

DIPOLE MOMENT
-------------
                                X             Y             Z
Electronic contribution:      0.03408       0.00000       0.00000
Nuclear contribution   :      0.00712       0.00000       0.00000
                        -----------------------------------------
Total Dipole Moment    :      0.04121       0.00000       0.00000
                        -----------------------------------------
Magnitude (a.u.)       :      0.04121
Magnitude (Debye)      :      0.10474

Rotational constants in cm-1:     0.000000     1.946953     1.946953
Rotational constants in MHz :     0.000000 58368.172843 58368.172843

                             ****ORCA TERMINATED NORMALLY****
TOTAL RUN TIME: 0 days 0 hours 0 minutes 2 seconds 656 msec
