                         Program Version 5.0.1 -  RELEASE  -
|  1>
|  2> %pal
|  3>   nprocs 6
|  4> end
|  5> %maxcore 2000
|  6>
|  7> ! B3LYP aug-cc-pVTZ VeryTightSCF
|  8> ! RIJCOSX def2/J
|  9>
| 10> * xyzfile 0 2 nitrogen_monoxide.xyz
| 11>
| 12>
| 13>                          ****END OF INPUT****

CARTESIAN COORDINATES (ANGSTROEM)
---------------------------------
  N    -27.883207   12.166670    0.000000
  O    -26.743453   12.166670    0.000000

 Total Charge           Charge          ....    0
 Multiplicity           Mult            ....    2
 Number of Electrons    NEL             ....   15
 Basis Dimension        Dim             ....   92

ORBITAL ENERGIES
----------------
                 SPIN UP ORBITALS
  NO   OCC          E(Eh)            E(eV)
   0   1.0000     -19.274060      -524.4738
   1   1.0000     -14.460023      -393.4772
   2   1.0000      -1.261457       -34.3260
   3   1.0000      -0.693428       -18.8691
   4   1.0000      -0.547810       -14.9067
   5   1.0000      -0.520534       -14.1645
   6   1.0000      -0.493496       -13.4287
   7   1.0000      -0.219606        -5.9758
   8   0.0000      -0.109286        -2.9738
   9   0.0000       0.031846         0.8666
  10   0.0000       0.063693         1.7332
  11   0.0000       0.070864         1.9283
  12   0.0000       0.072523         1.9734

                 SPIN DOWN ORBITALS
  NO   OCC          E(Eh)            E(eV)
   0   1.0000     -19.263534      -524.1874
   1   1.0000     -14.444303      -393.0495
   2   1.0000      -1.240624       -33.7591
   3   1.0000      -0.657145       -17.8818
   4   1.0000      -0.510989       -13.9047
   5   1.0000      -0.475122       -12.9287
   6   1.0000      -0.468841       -12.7578
   7   0.0000      -0.094187        -2.5630
   8   0.0000      -0.054632        -1.4866
   9   0.0000       0.032796         0.8924
  10   0.0000       0.065498         1.7823
  11   0.0000       0.072726         1.9790

MULLIKEN ATOMIC CHARGES AND SPIN POPULATIONS
--------------------------------------------
   0 N :    0.085020    0.700932
   1 O :   -0.085020    0.299068
Sum of atomic charges         :    0.0000000

LOEWDIN ATOMIC CHARGES AND SPIN POPULATIONS
-------------------------------------------
   0 N :   -0.091948    0.609063
   1 O :    0.091948    0.390937

  Mayer bond orders larger than 0.100000
B(  0-N ,  1-O ) :   1.9653

FINAL SINGLE POINT ENERGY      -129.887213681137

DIPOLE MOMENT
-------------
                                X             Y             Z
Electronic contribution:      0.05686       0.00000       0.00000
Nuclear contribution   :      0.00452       0.00000       0.00000
                        -----------------------------------------
Total Dipole Moment    :      0.06138       0.00000       0.00000
                        -----------------------------------------
Magnitude (a.u.)       :      0.06138
Magnitude (Debye)      :      0.15602

Rotational constants in cm-1:     0.000000     1.737578     1.737578
Rotational constants in MHz :     0.000000 52091.291729 52091.291729

                             ****ORCA TERMINATED NORMALLY****
TOTAL RUN TIME: 0 days 0 hours 0 minutes 1 seconds 32 msec
