                         Program Version 5.0.1 -  RELEASE  -
|  1>
|  2> %pal
|  3>   nprocs 6
|  4> end
|  5> %maxcore 2000
|  6>
|  7> ! PBE0 def2-TZVP TightOPT Freq
|  8> ! RIJCOSX def2/J
|  9>
| 10> * xyzfile 0 1 phosphine.xyz
| 11>
| 12>
| 13>                          ****END OF INPUT****
 Total Charge           Charge          ....    0
 Multiplicity           Mult            ....    1
 Number of Electrons    NEL             ....   18
FINAL SINGLE POINT ENERGY      -342.975882536868
FINAL SINGLE POINT ENERGY      -343.003210815040
FINAL SINGLE POINT ENERGY      -343.014609302167
FINAL SINGLE POINT ENERGY      -343.016213645058
FINAL SINGLE POINT ENERGY      -343.016278702405
FINAL SINGLE POINT ENERGY      -343.016287366145
FINAL SINGLE POINT ENERGY      -343.016289993375
FINAL SINGLE POINT ENERGY      -343.016290061953
                    ***********************HURRAY********************

CARTESIAN COORDINATES (ANGSTROEM)
---------------------------------
  P     -0.092768   -0.131096    0.227150
  H     -0.395501    1.225554   -0.061679
  H     -0.395627   -0.559549   -1.091980
  H      1.287226    0.035481   -0.061462

 Multiplicity           Mult            ....    1
 Number of Electrons    NEL             ....   18
 Basis Dimension        Dim             ....   55

ORBITAL ENERGIES
----------------

  NO   OCC          E(Eh)            E(eV)
   0   2.0000     -77.205244     -2100.8615
   1   2.0000      -6.604094      -179.7065
   2   2.0000      -4.738657      -128.9454
   3   2.0000      -4.738656      -128.9454
   4   2.0000      -4.737253      -128.9072
   5   2.0000      -0.662681       -18.0325
   6   2.0000      -0.395970       -10.7749
   7   2.0000      -0.395958       -10.7746
   8   2.0000      -0.288856        -7.8602
   9   0.0000       0.028536         0.7765
  10   0.0000       0.028548         0.7768
  11   0.0000       0.044603         1.2137
  12   0.0000       0.191229         5.2036
  13   0.0000       0.191244         5.2040

MULLIKEN ATOMIC CHARGES
-----------------------
   0 P :   -0.257233
   1 H :    0.085779
   2 H :    0.085736
   3 H :    0.085719
Sum of atomic charges:    0.0000000

LOEWDIN ATOMIC CHARGES
----------------------
   0 P :   -0.011869
   1 H :    0.003970
   2 H :    0.003948
   3 H :    0.003951

  Mayer bond orders larger than 0.100000
B(  0-P ,  1-H ) :   0.9714 B(  0-P ,  2-H ) :   0.9714 B(  0-P ,  3-H ) :   0.9714

FINAL SINGLE POINT ENERGY      -343.016290063678

DIPOLE MOMENT
-------------
                                X             Y             Z
Electronic contribution:     -0.59021      -0.83440       1.44547
Nuclear contribution   :      0.68242       0.96474      -1.67130
                        -----------------------------------------
Total Dipole Moment    :      0.09221       0.13034      -0.22583
                        -----------------------------------------
Magnitude (a.u.)       :      0.27657
Magnitude (Debye)      :      0.70297

VIBRATIONAL FREQUENCIES
-----------------------

Scaling factor for frequencies =  1.000000000  (already applied!)

   0:         0.00 cm**-1
   1:         0.00 cm**-1
   2:         0.00 cm**-1
   3:         0.00 cm**-1
   4:         0.00 cm**-1
   5:         0.00 cm**-1
   6:      1004.64 cm**-1
   7:      1134.20 cm**-1
   8:      1134.26 cm**-1
   9:      2412.12 cm**-1
  10:      2422.68 cm**-1
  11:      2423.00 cm**-1

IR SPECTRUM
-----------

 Mode   freq       eps      Int      T**2         TX        TY        TZ
       cm**-1   L/(mol*cm) km/mol    a.u.
----------------------------------------------------------------------------
  6:   1004.64   0.002957   14.94  0.000918  (-0.010113 -0.014321  0.024720)
  7:   1134.20   0.001865    9.43  0.000513  (-0.012667  0.018034  0.005250)
  8:   1134.26   0.001867    9.44  0.000514  ( 0.017219  0.008526  0.012020)
  9:   2412.12   0.005197   26.27  0.000672  ( 0.008981  0.012707 -0.020743)
 10:   2422.68   0.010843   54.80  0.001397  (-0.027444  0.025131  0.003451)
 11:   2423.00   0.010840   54.78  0.001396  ( 0.022028  0.021003  0.021673)

--------------------------
THERMOCHEMISTRY AT 298.15K
--------------------------

Temperature         ... 298.15 K
Pressure            ... 1.00 atm
Total Mass          ... 34.00 AMU

Throughout the following assumptions are being made:
  (1) The electronic state is orbitally nondegenerate
  (2) There are no thermally accessible electronically excited states
  (3) Hindered rotations indicated by low frequency modes are not
      treated as such but are treated as vibrations and this may
      cause some error
  (4) All equations used are the standard statistical mechanics
      equations for an ideal gas
  (5) All vibrations are strictly harmonic

freq.    1004.64  E(vib)   ...       0.02
freq.    1134.20  E(vib)   ...       0.01
freq.    1134.26  E(vib)   ...       0.01
freq.    2412.12  E(vib)   ...       0.00
freq.    2422.68  E(vib)   ...       0.00
freq.    2423.00  E(vib)   ...       0.00

------------
INNER ENERGY
------------

The inner energy is: U= E(el) + E(ZPE) + E(vib) + E(rot) + E(trans)
    E(el)   - is the total energy from the electronic structure calculation
              = E(kin-el) + E(nuc-el) + E(el-el) + E(nuc-nuc)
    E(ZPE)  - the the zero temperature vibrational energy from the frequency calculation
    E(vib)  - the the finite temperature correction to E(ZPE) due to population
              of excited vibrational states
    E(rot)  - is the rotational thermal energy
    E(trans)- is the translational thermal energy

Summary of contributions to the inner energy U:
Electronic energy                ...   -343.01629006 Eh
Zero point energy                ...      0.02399115 Eh      15.05 kcal/mol
Thermal vibrational correction   ...      0.00008004 Eh       0.05 kcal/mol
Thermal rotational correction    ...      0.00141627 Eh       0.89 kcal/mol
Thermal translational correction ...      0.00141627 Eh       0.89 kcal/mol
-----------------------------------------------------------------------
Total thermal energy                   -342.98938633 Eh

Summary of corrections to the electronic energy:
(perhaps to be used in another calculation)
Total thermal correction                  0.00291258 Eh       1.83 kcal/mol
Non-thermal (ZPE) correction              0.02399115 Eh      15.05 kcal/mol
-----------------------------------------------------------------------
Total correction                          0.02690374 Eh      16.88 kcal/mol

--------
ENTHALPY
--------

The enthalpy is H = U + kB*T
                kB is Boltzmann's constant
Total free energy                 ...   -342.98938633 Eh
Thermal Enthalpy correction       ...      0.00094421 Eh       0.59 kcal/mol
-----------------------------------------------------------------------
Total Enthalpy                    ...   -342.98844212 Eh

Note: Rotational entropy computed according to Herzberg
Infrared and Raman Spectra, Chapter V,1, Van Nostrand Reinhold, 1945
Point Group:  C3v, Symmetry Number:   3
Rotational constants in cm-1:     4.445043     4.444854     3.936882

Vibrational entropy computed according to the QRRHO of S. Grimme
Chem.Eur.J. 2012 18 9955

-------
ENTROPY
-------

The entropy contributions are T*S = T*(S(el)+S(vib)+S(rot)+S(trans))
     S(el)   - electronic entropy
     S(vib)  - vibrational entropy
     S(rot)  - rotational entropy
     S(trans)- translational entropy
The entropies will be listed as multiplied by the temperature to get
units of energy

Electronic entropy                ...      0.00000000 Eh      0.00 kcal/mol
Vibrational entropy               ...      0.00009548 Eh      0.06 kcal/mol
Rotational entropy                ...      0.00641807 Eh      4.03 kcal/mol
Translational entropy             ...      0.01734327 Eh     10.88 kcal/mol
-----------------------------------------------------------------------
Final entropy term                ...      0.02385683 Eh     14.97 kcal/mol

In case the symmetry of your molecule has not been determined correctly
or in case you have a reason to use a different symmetry number we print
out the resulting rotational entropy values for sn=1,12 :
 --------------------------------------------------------
|  sn= 1 | S(rot)=       0.00745536 Eh      4.68 kcal/mol|
|  sn= 2 | S(rot)=       0.00680091 Eh      4.27 kcal/mol|
|  sn= 3 | S(rot)=       0.00641807 Eh      4.03 kcal/mol|
|  sn= 4 | S(rot)=       0.00614645 Eh      3.86 kcal/mol|
|  sn= 5 | S(rot)=       0.00593576 Eh      3.72 kcal/mol|
|  sn= 6 | S(rot)=       0.00576362 Eh      3.62 kcal/mol|
|  sn= 7 | S(rot)=       0.00561807 Eh      3.53 kcal/mol|
|  sn= 8 | S(rot)=       0.00549199 Eh      3.45 kcal/mol|
|  sn= 9 | S(rot)=       0.00538079 Eh      3.38 kcal/mol|
|  sn=10 | S(rot)=       0.00528131 Eh      3.31 kcal/mol|
|  sn=11 | S(rot)=       0.00519132 Eh      3.26 kcal/mol|
|  sn=12 | S(rot)=       0.00510916 Eh      3.21 kcal/mol|
 --------------------------------------------------------

-------------------
GIBBS FREE ENERGY
-------------------

The Gibbs free energy is G = H - T*S

Total enthalpy                    ...   -342.98844212 Eh
Total entropy correction          ...     -0.02385683 Eh    -14.97 kcal/mol
-----------------------------------------------------------------------
Final Gibbs free energy         ...   -343.01229895 Eh

For completeness - the Gibbs free energy minus the electronic energy
G-E(el)                           ...      0.00399112 Eh      2.50 kcal/mol

                             ****ORCA TERMINATED NORMALLY****
TOTAL RUN TIME: 0 days 0 hours 0 minutes 14 seconds 859 msec
