                         Program Version 5.0.1 -  RELEASE  -
|  1>
|  2> %pal
|  3>   nprocs 6
|  4> end
|  5> %maxcore 2000
|  6>
|  7> ! DLPNO-CCSD aug-cc-pVTZ VeryTightSCF
|  8> ! RIJCOSX def2/J aug-cc-pVTZ/C
|  9> ! TightPNO
| 10>
| 11> %mdci
| 12>   density unrelaxed
| 13> end
| 14>
| 15> * xyzfile 0 1 ammonia.xyz
| 16>
| 17>
| 18>                          ****END OF INPUT****

CARTESIAN COORDINATES (ANGSTROEM)
---------------------------------
  N     -0.008597   -0.012177    0.021074
  H     -0.326859   -0.462229   -0.828075
  H     -0.326855    0.948260   -0.013741
  H      1.002981    0.007926   -0.013728

 Total Charge           Charge          ....    0
 Multiplicity           Mult            ....    1
 Number of Electrons    NEL             ....   10
 Basis Dimension        Dim             ....  115

ORBITAL ENERGIES
----------------

  NO   OCC          E(Eh)            E(eV)
   0   2.0000     -15.541550      -422.9071
   1   2.0000      -1.141691       -31.0670
   2   2.0000      -0.629173       -17.1207
   3   2.0000      -0.629144       -17.1199
   4   2.0000      -0.428414       -11.6577
   5   0.0000       0.030288         0.8242
   6   0.0000       0.049459         1.3459
   7   0.0000       0.049460         1.3459
   8   0.0000       0.118414         3.2222
   9   0.0000       0.152726         4.1559

E(0)                                       ...    -56.220487447
E(0)                                       ...    -56.220487447
E(CORR)(strong-pairs)                      ...     -0.251987770
E(CORR)(weak-pairs)                        ...     -0.000043685
E(CORR)(corrected)                         ...     -0.252031454
E(TOT)                                     ...    -56.472518901

MULLIKEN ATOMIC CHARGES
-----------------------
   0 N :   -0.596846
   1 H :    0.198935
   2 H :    0.199176
   3 H :    0.198735
Sum of atomic charges:    0.0000000

LOEWDIN ATOMIC CHARGES
----------------------
   0 N :    1.073434
   1 H :   -0.357842
   2 H :   -0.357799
   3 H :   -0.357792

  Mayer bond orders larger than 0.100000
B(  0-N ,  1-H ) :   0.9012 B(  0-N ,  2-H ) :   0.9006 B(  0-N ,  3-H ) :   0.9016

FINAL SINGLE POINT ENERGY       -56.472518901015

DIPOLE MOMENT
-------------
                                X             Y             Z
Electronic contribution:     -0.09230      -0.13056       0.22611
Nuclear contribution   :      0.28927       0.40915      -0.70862
                        -----------------------------------------
Total Dipole Moment    :      0.19697       0.27859      -0.48250
                        -----------------------------------------
Magnitude (a.u.)       :      0.59095
Magnitude (Debye)      :      1.50207

Rotational constants in cm-1:     9.993697     9.993429     6.304550
Rotational constants in MHz : 299603.509327 299595.452230 189005.660235

                             ****ORCA TERMINATED NORMALLY****
TOTAL RUN TIME: 0 days 0 hours 1 minutes 5 seconds 535 msec
