                         Program Version 5.0.1 -  RELEASE  -
|  1>
|  2> %pal
|  3>   nprocs 6
|  4> end
|  5> %maxcore 2000
|  6>
|  7> ! B3LYP aug-cc-pVTZ VeryTightSCF
|  8> ! RIJCOSX def2/J
|  9>
| 10> * xyzfile 0 1 furan.xyz
| 11>
| 12>
| 13>                          ****END OF INPUT****

CARTESIAN COORDINATES (ANGSTROEM)
---------------------------------
  C     -0.396763    1.309389   -0.000001
  O      0.016195    0.023197   -0.000000
  C      1.367142    0.042429    0.000001
  C      0.664447    2.148923    0.000002
  C      1.823692    1.316209   -0.000002
  H     -1.462896    1.463599   -0.000003
  H      1.854233   -0.918434    0.000003
  H      0.628890    3.226440    0.000004
  H      2.856160    1.626788   -0.000004

 Total Charge           Charge          ....    0
 Multiplicity           Mult            ....    1
 Number of Electrons    NEL             ....   36
 Basis Dimension        Dim             ....  322

ORBITAL ENERGIES
----------------

  NO   OCC          E(Eh)            E(eV)
   0   2.0000     -19.198808      -522.4261
   1   2.0000     -10.221887      -278.1517
   2   2.0000     -10.221852      -278.1507
   3   2.0000     -10.173686      -276.8401
   4   2.0000     -10.173205      -276.8270
   5   2.0000      -1.120249       -30.4835
   6   2.0000      -0.803843       -21.8737
   7   2.0000      -0.749508       -20.3952
   8   2.0000      -0.603203       -16.4140
   9   2.0000      -0.570662       -15.5285
  10   2.0000      -0.546320       -14.8661
  11   2.0000      -0.458494       -12.4763
  12   2.0000      -0.448022       -12.1913
  13   2.0000      -0.413249       -11.2451
  14   2.0000      -0.402105       -10.9418
  15   2.0000      -0.376935       -10.2569
  16   2.0000      -0.286114        -7.7856
  17   2.0000      -0.235673        -6.4130
  18   0.0000      -0.003668        -0.0998
  19   0.0000      -0.001200        -0.0326
  20   0.0000       0.010586         0.2881
  21   0.0000       0.015563         0.4235
  22   0.0000       0.031458         0.8560

MULLIKEN ATOMIC CHARGES
-----------------------
   0 C :   -0.418708
   1 O :   -0.262066
   2 C :   -0.410654
   3 C :   -0.436780
   4 C :   -0.436165
   5 H :    0.618316
   6 H :    0.629122
   7 H :    0.360402
   8 H :    0.356533
Sum of atomic charges:    0.0000000

LOEWDIN ATOMIC CHARGES
----------------------
   0 C :   -0.056458
   1 O :    0.579997
   2 C :   -0.056173
   3 C :    0.152011
   4 C :    0.151996
   5 H :   -0.194512
   6 H :   -0.194458
   7 H :   -0.191220
   8 H :   -0.191182

  Mayer bond orders larger than 0.100000
B(  0-C ,  1-O ) :   1.0215 B(  0-C ,  2-C ) :   0.1193 B(  0-C ,  3-C ) :   1.3000
B(  0-C ,  5-H ) :   0.5303 B(  1-O ,  2-C ) :   1.0228 B(  2-C ,  4-C ) :   1.3067
B(  2-C ,  6-H ) :   0.5137 B(  3-C ,  4-C ) :   1.1359 B(  3-C ,  7-H ) :   0.9295
B(  4-C ,  8-H ) :   0.9339

FINAL SINGLE POINT ENERGY      -229.978781290797

DIPOLE MOMENT
-------------
                                X             Y             Z
Electronic contribution:     -0.96462      -1.34267      -0.00000
Nuclear contribution   :      1.10741       1.54133       0.00000
                        -----------------------------------------
Total Dipole Moment    :      0.14279       0.19866      -0.00000
                        -----------------------------------------
Magnitude (a.u.)       :      0.24465
Magnitude (Debye)      :      0.62185

Rotational constants in cm-1:     0.319544     0.312682     0.158038
Rotational constants in MHz :  9579.689039  9373.969929  4737.856534

                             ****ORCA TERMINATED NORMALLY****
TOTAL RUN TIME: 0 days 0 hours 0 minutes 23 seconds 248 msec
