                         Program Version 5.0.1 -  RELEASE  -
|  1>
|  2> %pal
|  3>   nprocs 6
|  4> end
|  5> %maxcore 2000
|  6>
|  7> ! B3LYP aug-cc-pVTZ VeryTightSCF
|  8> ! RIJCOSX def2/J
|  9>
| 10> * xyzfile 0 1 hydrogen_sulfide.xyz
| 11>
| 12>
| 13>                          ****END OF INPUT****

CARTESIAN COORDINATES (ANGSTROEM)
---------------------------------
  S     -0.055330   -0.078266    0.000000
  H     -0.308816    1.238733    0.000000
  H      1.270816    0.121753    0.000000

 Total Charge           Charge          ....    0
 Multiplicity           Mult            ....    1
 Number of Electrons    NEL             ....   18
 Basis Dimension        Dim             ....   96

ORBITAL ENERGIES
----------------

  NO   OCC          E(Eh)            E(eV)
   0   2.0000     -88.896841     -2419.0060
   1   2.0000      -7.949406      -216.3143
   2   2.0000      -5.913178      -160.9057
   3   2.0000      -5.910338      -160.8285
   4   2.0000      -5.905544      -160.6980
   5   2.0000      -0.745275       -20.2800
   6   2.0000      -0.446676       -12.1547
   7   2.0000      -0.370430       -10.0799
   8   2.0000      -0.265901        -7.2355
   9   0.0000      -0.019588        -0.5330
  10   0.0000       0.005755         0.1566
  11   0.0000       0.028119         0.7652
  12   0.0000       0.047243         1.2855
  13   0.0000       0.053902         1.4668

MULLIKEN ATOMIC CHARGES
-----------------------
   0 S :   -0.243793
   1 H :    0.122799
   2 H :    0.120994
Sum of atomic charges:   -0.0000000

LOEWDIN ATOMIC CHARGES
----------------------
   0 S :    1.300907
   1 H :   -0.650426
   2 H :   -0.650481

  Mayer bond orders larger than 0.100000
B(  0-S ,  1-H ) :   1.0261 B(  0-S ,  2-H ) :   1.0281

FINAL SINGLE POINT ENERGY      -399.364125723028

DIPOLE MOMENT
-------------
                                X             Y             Z
Electronic contribution:     -0.72316      -1.02280      -0.00000
Nuclear contribution   :      0.94773       1.34033       0.00000
                        -----------------------------------------
Total Dipole Moment    :      0.22456       0.31753      -0.00000
                        -----------------------------------------
Magnitude (a.u.)       :      0.38892
Magnitude (Debye)      :      0.98855

Rotational constants in cm-1:    10.298825     8.936361     4.784670
Rotational constants in MHz : 308750.999349 267905.376974 143440.801607

                             ****ORCA TERMINATED NORMALLY****
TOTAL RUN TIME: 0 days 0 hours 0 minutes 52 seconds 709 msec
