                         Program Version 5.0.1 -  RELEASE  -
|  1>
|  2> %pal
|  3>   nprocs 6
|  4> end
|  5> %maxcore 2000
|  6>
|  7> ! PBE0 def2-TZVP TightOPT Freq
|  8> ! RIJCOSX def2/J
|  9>
| 10> * xyzfile 0 1 acetaldehyde.xyz
| 11>
| 12>
| 13>                          ****END OF INPUT****
 Total Charge           Charge          ....    0
 Multiplicity           Mult            ....    1
 Number of Electrons    NEL             ....   24
FINAL SINGLE POINT ENERGY      -153.703918796834
FINAL SINGLE POINT ENERGY      -153.711934812561
FINAL SINGLE POINT ENERGY      -153.712866732975
FINAL SINGLE POINT ENERGY      -153.712991023652
FINAL SINGLE POINT ENERGY      -153.713030657413
FINAL SINGLE POINT ENERGY      -153.713036822153
FINAL SINGLE POINT ENERGY      -153.713037397097
FINAL SINGLE POINT ENERGY      -153.713039772242
FINAL SINGLE POINT ENERGY      -153.713039896934
                    ***********************HURRAY********************

CARTESIAN COORDINATES (ANGSTROEM)
---------------------------------
  C      1.441762   -0.020280   -0.257814
  C     -0.037836    0.035108   -0.055494
  O     -0.728246    0.982027   -0.313173
  H      1.812983    0.916060   -0.671732
  H      1.931960   -0.232329    0.697630
  H      1.686979   -0.852469   -0.925179
  H     -0.490353   -0.889736    0.366481

 Multiplicity           Mult            ....    1
 Number of Electrons    NEL             ....   24
 Basis Dimension        Dim             ....  117

ORBITAL ENERGIES
----------------

  NO   OCC          E(Eh)            E(eV)
   0   2.0000     -19.207533      -522.6635
   1   2.0000     -10.315769      -280.7063
   2   2.0000     -10.234053      -278.4827
   3   2.0000      -1.085491       -29.5377
   4   2.0000      -0.782400       -21.2902
   5   2.0000      -0.601766       -16.3749
   6   2.0000      -0.500951       -13.6316
   7   2.0000      -0.465093       -12.6558
   8   2.0000      -0.458520       -12.4770
   9   2.0000      -0.415410       -11.3039
  10   2.0000      -0.385253       -10.4833
  11   2.0000      -0.275311        -7.4916
  12   0.0000      -0.023486        -0.6391
  13   0.0000       0.052387         1.4255
  14   0.0000       0.085552         2.3280
  15   0.0000       0.107299         2.9198
  16   0.0000       0.115028         3.1301

MULLIKEN ATOMIC CHARGES
-----------------------
   0 C :   -0.295503
   1 C :    0.105406
   2 O :   -0.267867
   3 H :    0.130434
   4 H :    0.132641
   5 H :    0.132691
   6 H :    0.062197
Sum of atomic charges:    0.0000000

LOEWDIN ATOMIC CHARGES
----------------------
   0 C :   -0.301251
   1 C :   -0.332409
   2 O :    0.118889
   3 H :    0.131054
   4 H :    0.138641
   5 H :    0.138631
   6 H :    0.106445

  Mayer bond orders larger than 0.100000
B(  0-C ,  1-C ) :   0.9722 B(  0-C ,  3-H ) :   0.9522 B(  0-C ,  4-H ) :   0.9396
B(  0-C ,  5-H ) :   0.9396 B(  1-C ,  2-O ) :   2.1302 B(  1-C ,  6-H ) :   0.9543

FINAL SINGLE POINT ENERGY      -153.713039972986

DIPOLE MOMENT
-------------
                                X             Y             Z
Electronic contribution:     -2.96675       1.49056      -0.12181
Nuclear contribution   :      3.75362      -2.24617       0.29177
                        -----------------------------------------
Total Dipole Moment    :      0.78687      -0.75561       0.16996
                        -----------------------------------------
Magnitude (a.u.)       :      1.10408
Magnitude (Debye)      :      2.80635

VIBRATIONAL FREQUENCIES
-----------------------

Scaling factor for frequencies =  1.000000000  (already applied!)

   0:         0.00 cm**-1
   1:         0.00 cm**-1
   2:         0.00 cm**-1
   3:         0.00 cm**-1
   4:         0.00 cm**-1
   5:         0.00 cm**-1
   6:       160.15 cm**-1
   7:       509.27 cm**-1
   8:       770.74 cm**-1
   9:       897.73 cm**-1
  10:      1134.18 cm**-1
  11:      1136.47 cm**-1
  12:      1369.15 cm**-1
  13:      1422.62 cm**-1
  14:      1451.22 cm**-1
  15:      1460.47 cm**-1
  16:      1847.44 cm**-1
  17:      2888.56 cm**-1
  18:      3045.36 cm**-1
  19:      3110.41 cm**-1
  20:      3168.47 cm**-1

IR SPECTRUM
-----------

 Mode   freq       eps      Int      T**2         TX        TY        TZ
       cm**-1   L/(mol*cm) km/mol    a.u.
----------------------------------------------------------------------------
  6:    160.15   0.000149    0.75  0.000290  (-0.002391 -0.006054 -0.015743)
  7:    509.27   0.002656   13.42  0.001627  ( 0.038114  0.009358 -0.009331)
  8:    770.74   0.000248    1.25  0.000101  ( 0.001401  0.003579  0.009261)
  9:    897.73   0.001499    7.58  0.000521  (-0.022583  0.002075  0.002625)
 10:   1134.18   0.004969   25.11  0.001367  (-0.034967 -0.008441  0.008567)
 11:   1136.47   0.000082    0.41  0.000022  ( 0.000962  0.001738  0.004297)
 12:   1369.15   0.005837   29.50  0.001330  (-0.035316  0.008917  0.001939)
 13:   1422.62   0.002200   11.12  0.000483  (-0.021449 -0.002340  0.004138)
 14:   1451.22   0.004465   22.57  0.000960  ( 0.006976 -0.028545  0.009834)
 15:   1460.47   0.002273   11.48  0.000486  ( 0.003077  0.007762  0.020393)
 16:   1847.44   0.037790  190.98  0.006383  ( 0.057357 -0.054291  0.012085)
 17:   2888.56   0.023797  120.26  0.002571  (-0.023679 -0.040569  0.019087)
 18:   3045.36   0.000264    1.34  0.000027  (-0.002321  0.004450 -0.001374)
 19:   3110.41   0.000891    4.50  0.000089  ( 0.001279  0.003378  0.008740)
 20:   3168.47   0.001401    7.08  0.000138  ( 0.005039  0.009625 -0.004467)

--------------------------
THERMOCHEMISTRY AT 298.15K
--------------------------

Temperature         ... 298.15 K
Pressure            ... 1.00 atm
Total Mass          ... 44.05 AMU

Throughout the following assumptions are being made:
  (1) The electronic state is orbitally nondegenerate
  (2) There are no thermally accessible electronically excited states
  (3) Hindered rotations indicated by low frequency modes are not
      treated as such but are treated as vibrations and this may
      cause some error
  (4) All equations used are the standard statistical mechanics
      equations for an ideal gas
  (5) All vibrations are strictly harmonic

freq.     160.15  E(vib)   ...       0.39
freq.     509.27  E(vib)   ...       0.14
freq.     770.74  E(vib)   ...       0.05
freq.     897.73  E(vib)   ...       0.03
freq.    1134.18  E(vib)   ...       0.01
freq.    1136.47  E(vib)   ...       0.01
freq.    1369.15  E(vib)   ...       0.01
freq.    1422.62  E(vib)   ...       0.00
freq.    1451.22  E(vib)   ...       0.00
freq.    1460.47  E(vib)   ...       0.00
freq.    1847.44  E(vib)   ...       0.00
freq.    2888.56  E(vib)   ...       0.00
freq.    3045.36  E(vib)   ...       0.00
freq.    3110.41  E(vib)   ...       0.00
freq.    3168.47  E(vib)   ...       0.00

------------
INNER ENERGY
------------

The inner energy is: U= E(el) + E(ZPE) + E(vib) + E(rot) + E(trans)
    E(el)   - is the total energy from the electronic structure calculation
              = E(kin-el) + E(nuc-el) + E(el-el) + E(nuc-nuc)
    E(ZPE)  - the the zero temperature vibrational energy from the frequency calculation
    E(vib)  - the the finite temperature correction to E(ZPE) due to population
              of excited vibrational states
    E(rot)  - is the rotational thermal energy
    E(trans)- is the translational thermal energy

Summary of contributions to the inner energy U:
Electronic energy                ...   -153.71303997 Eh
Zero point energy                ...      0.05552403 Eh      34.84 kcal/mol
Thermal vibrational correction   ...      0.00105655 Eh       0.66 kcal/mol
Thermal rotational correction    ...      0.00141627 Eh       0.89 kcal/mol
Thermal translational correction ...      0.00141627 Eh       0.89 kcal/mol
-----------------------------------------------------------------------
Total thermal energy                   -153.65362686 Eh

Summary of corrections to the electronic energy:
(perhaps to be used in another calculation)
Total thermal correction                  0.00388909 Eh       2.44 kcal/mol
Non-thermal (ZPE) correction              0.05552403 Eh      34.84 kcal/mol
-----------------------------------------------------------------------
Total correction                          0.05941312 Eh      37.28 kcal/mol

--------
ENTHALPY
--------

The enthalpy is H = U + kB*T
                kB is Boltzmann's constant
Total free energy                 ...   -153.65362686 Eh
Thermal Enthalpy correction       ...      0.00094421 Eh       0.59 kcal/mol
-----------------------------------------------------------------------
Total Enthalpy                    ...   -153.65268265 Eh

Note: Only C1 symmetry has been detected, increase convergence thresholds
      if your molecule has a higher symmetry. Symmetry factor of 1.0 is
      used for the rotational entropy correction.

Note: Rotational entropy computed according to Herzberg
Infrared and Raman Spectra, Chapter V,1, Van Nostrand Reinhold, 1945
Point Group:  C1, Symmetry Number:   1
Rotational constants in cm-1:     1.917540     0.341732     0.306399

Vibrational entropy computed according to the QRRHO of S. Grimme
Chem.Eur.J. 2012 18 9955

-------
ENTROPY
-------

The entropy contributions are T*S = T*(S(el)+S(vib)+S(rot)+S(trans))
     S(el)   - electronic entropy
     S(vib)  - vibrational entropy
     S(rot)  - rotational entropy
     S(trans)- translational entropy
The entropies will be listed as multiplied by the temperature to get
units of energy

Electronic entropy                ...      0.00000000 Eh      0.00 kcal/mol
Vibrational entropy               ...      0.00176397 Eh      1.11 kcal/mol
Rotational entropy                ...      0.01026878 Eh      6.44 kcal/mol
Translational entropy             ...      0.01771022 Eh     11.11 kcal/mol
-----------------------------------------------------------------------
Final entropy term                ...      0.02974297 Eh     18.66 kcal/mol

In case the symmetry of your molecule has not been determined correctly
or in case you have a reason to use a different symmetry number we print
out the resulting rotational entropy values for sn=1,12 :
 --------------------------------------------------------
|  sn= 1 | S(rot)=       0.01026878 Eh      6.44 kcal/mol|
|  sn= 2 | S(rot)=       0.00961432 Eh      6.03 kcal/mol|
|  sn= 3 | S(rot)=       0.00923149 Eh      5.79 kcal/mol|
|  sn= 4 | S(rot)=       0.00895986 Eh      5.62 kcal/mol|
|  sn= 5 | S(rot)=       0.00874918 Eh      5.49 kcal/mol|
|  sn= 6 | S(rot)=       0.00857703 Eh      5.38 kcal/mol|
|  sn= 7 | S(rot)=       0.00843149 Eh      5.29 kcal/mol|
|  sn= 8 | S(rot)=       0.00830541 Eh      5.21 kcal/mol|
|  sn= 9 | S(rot)=       0.00819420 Eh      5.14 kcal/mol|
|  sn=10 | S(rot)=       0.00809472 Eh      5.08 kcal/mol|
|  sn=11 | S(rot)=       0.00800473 Eh      5.02 kcal/mol|
|  sn=12 | S(rot)=       0.00792257 Eh      4.97 kcal/mol|
 --------------------------------------------------------

-------------------
GIBBS FREE ENERGY
-------------------

The Gibbs free energy is G = H - T*S

Total enthalpy                    ...   -153.65268265 Eh
Total entropy correction          ...     -0.02974297 Eh    -18.66 kcal/mol
-----------------------------------------------------------------------
Final Gibbs free energy         ...   -153.68242561 Eh

For completeness - the Gibbs free energy minus the electronic energy
G-E(el)                           ...      0.03061436 Eh     19.21 kcal/mol

                             ****ORCA TERMINATED NORMALLY****
TOTAL RUN TIME: 0 days 0 hours 0 minutes 48 seconds 696 msec
