                         Program Version 5.0.1 -  RELEASE  -
|  1>
|  2> %pal
|  3>   nprocs 6
|  4> end
|  5> %maxcore 2000
|  6>
|  7> ! PBE aug-cc-pVTZ VeryTightSCF
|  8> ! RIJCOSX def2/J
|  9>
| 10> * xyzfile 0 1 phosphine.xyz
| 11>
| 12>
| 13>                          ****END OF INPUT****

CARTESIAN COORDINATES (ANGSTROEM)
---------------------------------
  P     -0.092768   -0.131096    0.227150
  H     -0.395501    1.225554   -0.061679
  H     -0.395627   -0.559549   -1.091980
  H      1.287226    0.035481   -0.061462

 Total Charge           Charge          ....    0
 Multiplicity           Mult            ....    1
 Number of Electrons    NEL             ....   18
 Basis Dimension        Dim             ....  119

ORBITAL ENERGIES
----------------

  NO   OCC          E(Eh)            E(eV)
   0   2.0000     -76.328767     -2077.0113
   1   2.0000      -6.309281      -171.6843
   2   2.0000      -4.526191      -123.1639
   3   2.0000      -4.526191      -123.1639
   4   2.0000      -4.523908      -123.1018
   5   2.0000      -0.588281       -16.0079
   6   2.0000      -0.346232        -9.4215
   7   2.0000      -0.346219        -9.4211
   8   2.0000      -0.247209        -6.7269
   9   0.0000      -0.024257        -0.6601
  10   0.0000      -0.010727        -0.2919
  11   0.0000      -0.010717        -0.2916
  12   0.0000       0.022549         0.6136
  13   0.0000       0.022550         0.6136

MULLIKEN ATOMIC CHARGES
-----------------------
   0 P :   -0.123434
   1 H :    0.041142
   2 H :    0.041153
   3 H :    0.041139
Sum of atomic charges:   -0.0000000

LOEWDIN ATOMIC CHARGES
----------------------
   0 P :    1.329693
   1 H :   -0.443190
   2 H :   -0.443256
   3 H :   -0.443246

  Mayer bond orders larger than 0.100000
B(  0-P ,  1-H ) :   0.9800 B(  0-P ,  2-H ) :   0.9799 B(  0-P ,  3-H ) :   0.9799

FINAL SINGLE POINT ENERGY      -342.986819495595

DIPOLE MOMENT
-------------
                                X             Y             Z
Electronic contribution:     -0.59971      -0.84785       1.46873
Nuclear contribution   :      0.68242       0.96474      -1.67130
                        -----------------------------------------
Total Dipole Moment    :      0.08271       0.11689      -0.20257
                        -----------------------------------------
Magnitude (a.u.)       :      0.24807
Magnitude (Debye)      :      0.63054

Rotational constants in cm-1:     4.445043     4.444854     3.936882
Rotational constants in MHz : 133259.033668 133253.369889 118024.763384

                             ****ORCA TERMINATED NORMALLY****
TOTAL RUN TIME: 0 days 0 hours 0 minutes 1 seconds 89 msec
