                         Program Version 5.0.1 -  RELEASE  -
|  1>
|  2> %pal
|  3>   nprocs 6
|  4> end
|  5> %maxcore 2000
|  6>
|  7> ! DLPNO-CCSD aug-cc-pVTZ VeryTightSCF
|  8> ! RIJCOSX def2/J aug-cc-pVTZ/C
|  9> ! TightPNO
| 10>
| 11> %mdci
| 12>   density unrelaxed
| 13> end
| 14>
| 15>
| 16> * xyzfile 0 1 carbon_monoxide.xyz
| 17>
| 18>
| 19>                          ****END OF INPUT****

CARTESIAN COORDINATES (ANGSTROEM)
---------------------------------
  C    -27.875039   12.166670    0.000000
  O    -26.751621   12.166670    0.000000

 Total Charge           Charge          ....    0
 Multiplicity           Mult            ....    1
 Number of Electrons    NEL             ....   14
 Basis Dimension        Dim             ....   92

ORBITAL ENERGIES
----------------

  NO   OCC          E(Eh)            E(eV)
   0   2.0000     -20.668063      -562.4066
   1   2.0000     -11.359776      -309.1152
   2   2.0000      -1.526458       -41.5370
   3   2.0000      -0.805357       -21.9149
   4   2.0000      -0.642651       -17.4874
   5   2.0000      -0.642651       -17.4874
   6   2.0000      -0.554362       -15.0849
   7   0.0000       0.069241         1.8841
   8   0.0000       0.070541         1.9195
   9   0.0000       0.070541         1.9195
  10   0.0000       0.087812         2.3895
  11   0.0000       0.155203         4.2233

E(0)                                       ...   -112.781998740
E(0)                                       ...   -112.781998740
E(CORR)(strong-pairs)                      ...     -0.362635689
E(CORR)(weak-pairs)                        ...     -0.000060199
E(CORR)(corrected)                         ...     -0.362695888
E(TOT)                                     ...   -113.144694628

MULLIKEN ATOMIC CHARGES
-----------------------
   0 C :    0.051054
   1 O :   -0.051054
Sum of atomic charges:    0.0000000

LOEWDIN ATOMIC CHARGES
----------------------
   0 C :   -0.186062
   1 O :    0.186062

  Mayer bond orders larger than 0.100000
B(  0-C ,  1-O ) :   2.2076

FINAL SINGLE POINT ENERGY      -113.144694628336

DIPOLE MOMENT
-------------
                                X             Y             Z
Electronic contribution:      0.05189       0.00000      -0.00001
Nuclear contribution   :      0.00712       0.00000       0.00000
                        -----------------------------------------
Total Dipole Moment    :      0.05901       0.00000      -0.00001
                        -----------------------------------------
Magnitude (a.u.)       :      0.05901
Magnitude (Debye)      :      0.14999

Rotational constants in cm-1:     0.000000     1.946953     1.946953
Rotational constants in MHz :     0.000000 58368.172843 58368.172843

                             ****ORCA TERMINATED NORMALLY****
TOTAL RUN TIME: 0 days 0 hours 0 minutes 54 seconds 631 msec
