                         Program Version 5.0.1 -  RELEASE  -
|  1>
|  2> %pal
|  3>   nprocs 6
|  4> end
|  5> %maxcore 2000
|  6>
|  7> ! B3LYP aug-cc-pVTZ VeryTightSCF
|  8> ! RIJCOSX def2/J
|  9>
| 10> * xyzfile 0 1 acetaldehyde.xyz
| 11>
| 12>
| 13>                          ****END OF INPUT****

CARTESIAN COORDINATES (ANGSTROEM)
---------------------------------
  C      1.441762   -0.020280   -0.257814
  C     -0.037836    0.035108   -0.055494
  O     -0.728246    0.982027   -0.313173
  H      1.812983    0.916060   -0.671732
  H      1.931960   -0.232329    0.697630
  H      1.686979   -0.852469   -0.925179
  H     -0.490353   -0.889736    0.366481

 Total Charge           Charge          ....    0
 Multiplicity           Mult            ....    1
 Number of Electrons    NEL             ....   24
 Basis Dimension        Dim             ....  230

ORBITAL ENERGIES
----------------

  NO   OCC          E(Eh)            E(eV)
   0   2.0000     -19.133767      -520.6563
   1   2.0000     -10.269055      -279.4352
   2   2.0000     -10.186132      -277.1787
   3   2.0000      -1.059726       -28.8366
   4   2.0000      -0.761063       -20.7096
   5   2.0000      -0.585463       -15.9312
   6   2.0000      -0.486736       -13.2448
   7   2.0000      -0.452546       -12.3144
   8   2.0000      -0.445252       -12.1159
   9   2.0000      -0.404858       -11.0167
  10   2.0000      -0.374433       -10.1889
  11   2.0000      -0.265588        -7.2270
  12   0.0000      -0.035638        -0.9698
  13   0.0000      -0.010281        -0.2798
  14   0.0000       0.009444         0.2570
  15   0.0000       0.017915         0.4875
  16   0.0000       0.028323         0.7707

MULLIKEN ATOMIC CHARGES
-----------------------
   0 C :   -0.515111
   1 C :    0.016862
   2 O :   -0.543537
   3 H :    0.242582
   4 H :    0.217853
   5 H :    0.216495
   6 H :    0.364856
Sum of atomic charges:    0.0000000

LOEWDIN ATOMIC CHARGES
----------------------
   0 C :    0.547687
   1 C :   -0.264448
   2 O :    0.462352
   3 H :   -0.186315
   4 H :   -0.182059
   5 H :   -0.182089
   6 H :   -0.195127

  Mayer bond orders larger than 0.100000
B(  0-C ,  1-C ) :   0.8752 B(  0-C ,  3-H ) :   0.9249 B(  0-C ,  4-H ) :   0.9466
B(  0-C ,  5-H ) :   0.9476 B(  1-C ,  2-O ) :   1.6917 B(  1-C ,  6-H ) :   0.7616

FINAL SINGLE POINT ENERGY      -153.808057988097

DIPOLE MOMENT
-------------
                                X             Y             Z
Electronic contribution:     -2.95225       1.47500      -0.11807
Nuclear contribution   :      3.75362      -2.24617       0.29177
                        -----------------------------------------
Total Dipole Moment    :      0.80137      -0.77117       0.17370
                        -----------------------------------------
Magnitude (a.u.)       :      1.12564
Magnitude (Debye)      :      2.86115

Rotational constants in cm-1:     1.917540     0.341732     0.306399
Rotational constants in MHz : 57486.395924 10244.864772  9185.612312

                             ****ORCA TERMINATED NORMALLY****
TOTAL RUN TIME: 0 days 0 hours 0 minutes 9 seconds 605 msec
