                         Program Version 5.0.1 -  RELEASE  -
|  1>
|  2> %pal
|  3>   nprocs 6
|  4> end
|  5> %maxcore 2000
|  6>
|  7> ! HF aug-cc-pVTZ VeryTightSCF
|  8> ! RIJCOSX def2/J
|  9>
| 10> * xyzfile 0 1 carbon_monoxide.xyz
| 11>
| 12>
| 13>                          ****END OF INPUT****

CARTESIAN COORDINATES (ANGSTROEM)
---------------------------------
  C    -27.875039   12.166670    0.000000
  O    -26.751621   12.166670    0.000000

 Total Charge           Charge          ....    0
 Multiplicity           Mult            ....    1
 Number of Electrons    NEL             ....   14
 Basis Dimension        Dim             ....   92

ORBITAL ENERGIES
----------------

  NO   OCC          E(Eh)            E(eV)
   0   2.0000     -20.668063      -562.4066
   1   2.0000     -11.359776      -309.1152
   2   2.0000      -1.526458       -41.5370
   3   2.0000      -0.805357       -21.9149
   4   2.0000      -0.642651       -17.4874
   5   2.0000      -0.642651       -17.4874
   6   2.0000      -0.554362       -15.0849
   7   0.0000       0.069241         1.8841
   8   0.0000       0.070541         1.9195
   9   0.0000       0.070541         1.9195
  10   0.0000       0.087812         2.3895
  11   0.0000       0.155203         4.2233

MULLIKEN ATOMIC CHARGES
-----------------------
   0 C :    0.133098
   1 O :   -0.133098
Sum of atomic charges:    0.0000000

LOEWDIN ATOMIC CHARGES
----------------------
   0 C :   -0.156908
   1 O :    0.156908

  Mayer bond orders larger than 0.100000
B(  0-C ,  1-O ) :   2.3369

FINAL SINGLE POINT ENERGY      -112.781998826189

DIPOLE MOMENT
-------------
                                X             Y             Z
Electronic contribution:     -0.10261       0.00000       0.00000
Nuclear contribution   :      0.00712       0.00000       0.00000
                        -----------------------------------------
Total Dipole Moment    :     -0.09549       0.00000       0.00000
                        -----------------------------------------
Magnitude (a.u.)       :      0.09549
Magnitude (Debye)      :      0.24271

Rotational constants in cm-1:     0.000000     1.946953     1.946953
Rotational constants in MHz :     0.000000 58368.172843 58368.172843

                             ****ORCA TERMINATED NORMALLY****
TOTAL RUN TIME: 0 days 0 hours 0 minutes 2 seconds 502 msec
