                         Program Version 5.0.1 -  RELEASE  -
|  1>
|  2> %pal
|  3>   nprocs 6
|  4> end
|  5> %maxcore 2000
|  6>
|  7> ! DLPNO-CCSD aug-cc-pVTZ VeryTightSCF
|  8> ! RIJCOSX def2/J aug-cc-pVTZ/C
|  9> ! TightPNO
| 10>
| 11> %mdci
| 12>   density unrelaxed
| 13> end
| 14>
| 15> * xyzfile 0 1 hydrogen_sulfide.xyz
| 16>
| 17>
| 18>                          ****END OF INPUT****

CARTESIAN COORDINATES (ANGSTROEM)
---------------------------------
  S     -0.055330   -0.078266    0.000000
  H     -0.308816    1.238733    0.000000
  H      1.270816    0.121753    0.000000

 Total Charge           Charge          ....    0
 Multiplicity           Mult            ....    1
 Number of Electrons    NEL             ....   18
 Basis Dimension        Dim             ....   96

ORBITAL ENERGIES
----------------

  NO   OCC          E(Eh)            E(eV)
   0   2.0000     -91.967142     -2502.5532
   1   2.0000      -8.969207      -244.0645
   2   2.0000      -6.650235      -180.9621
   3   2.0000      -6.649339      -180.9377
   4   2.0000      -6.649120      -180.9317
   5   2.0000      -0.981167       -26.6989
   6   2.0000      -0.588900       -16.0248
   7   2.0000      -0.501281       -13.6405
   8   2.0000      -0.385348       -10.4858
   9   0.0000       0.028853         0.7851
  10   0.0000       0.049539         1.3480
  11   0.0000       0.090444         2.4611
  12   0.0000       0.100416         2.7325
  13   0.0000       0.108723         2.9585

E(0)                                       ...   -398.713991076
E(0)                                       ...   -398.713991076
E(CORR)(strong-pairs)                      ...     -0.218721107
E(CORR)(weak-pairs)                        ...     -0.000025007
E(CORR)(corrected)                         ...     -0.218746114
E(TOT)                                     ...   -398.932737191

MULLIKEN ATOMIC CHARGES
-----------------------
   0 S :   -0.341155
   1 H :    0.169942
   2 H :    0.171213
Sum of atomic charges:    0.0000000

LOEWDIN ATOMIC CHARGES
----------------------
   0 S :    1.290338
   1 H :   -0.645118
   2 H :   -0.645220

  Mayer bond orders larger than 0.100000
B(  0-S ,  1-H ) :   0.9374 B(  0-S ,  2-H ) :   0.9355

FINAL SINGLE POINT ENERGY      -398.932737190697

DIPOLE MOMENT
-------------
                                X             Y             Z
Electronic contribution:     -0.72239      -1.02167       0.00000
Nuclear contribution   :      0.94773       1.34033       0.00000
                        -----------------------------------------
Total Dipole Moment    :      0.22534       0.31866       0.00000
                        -----------------------------------------
Magnitude (a.u.)       :      0.39028
Magnitude (Debye)      :      0.99202

Rotational constants in cm-1:    10.298825     8.936361     4.784670
Rotational constants in MHz : 308750.999349 267905.376974 143440.801607

                             ****ORCA TERMINATED NORMALLY****
TOTAL RUN TIME: 0 days 0 hours 3 minutes 13 seconds 883 msec
