                         Program Version 5.0.1 -  RELEASE  -
|  1>
|  2> %pal
|  3>   nprocs 6
|  4> end
|  5> %maxcore 2000
|  6>
|  7> ! DLPNO-CCSD aug-cc-pVTZ VeryTightSCF
|  8> ! RIJCOSX def2/J aug-cc-pVTZ/C
|  9> ! TightPNO
| 10>
| 11> %mdci
| 12>   density unrelaxed
| 13> end
| 14>
| 15> * xyzfile 0 1 furan.xyz
| 16>
| 17>
| 18>                          ****END OF INPUT****

CARTESIAN COORDINATES (ANGSTROEM)
---------------------------------
  C     -0.396763    1.309389   -0.000001
  O      0.016195    0.023197   -0.000000
  C      1.367142    0.042429    0.000001
  C      0.664447    2.148923    0.000002
  C      1.823692    1.316209   -0.000002
  H     -1.462896    1.463599   -0.000003
  H      1.854233   -0.918434    0.000003
  H      0.628890    3.226440    0.000004
  H      2.856160    1.626788   -0.000004

 Total Charge           Charge          ....    0
 Multiplicity           Mult            ....    1
 Number of Electrons    NEL             ....   36
 Basis Dimension        Dim             ....  322

ORBITAL ENERGIES
----------------

  NO   OCC          E(Eh)            E(eV)
   0   2.0000     -20.625629      -561.2519
   1   2.0000     -11.286713      -307.1271
   2   2.0000     -11.286626      -307.1247
   3   2.0000     -11.229695      -305.5755
   4   2.0000     -11.228690      -305.5482
   5   2.0000      -1.467315       -39.9277
   6   2.0000      -1.087116       -29.5819
   7   2.0000      -1.007723       -27.4215
   8   2.0000      -0.810211       -22.0470
   9   2.0000      -0.780813       -21.2470
  10   2.0000      -0.742575       -20.2065
  11   2.0000      -0.639109       -17.3911
  12   2.0000      -0.611269       -16.6335
  13   2.0000      -0.576544       -15.6886
  14   2.0000      -0.567321       -15.4376
  15   2.0000      -0.540410       -14.7053
  16   2.0000      -0.399483       -10.8705
  17   2.0000      -0.321012        -8.7352
  18   0.0000       0.029839         0.8119
  19   0.0000       0.035523         0.9666
  20   0.0000       0.038453         1.0463
  21   0.0000       0.049180         1.3382
  22   0.0000       0.080822         2.1993

E(0)                                       ...   -228.710854602
E(0)                                       ...   -228.710854602
E(CORR)(strong-pairs)                      ...     -0.893856849
E(CORR)(weak-pairs)                        ...     -0.000861057
E(CORR)(corrected)                         ...     -0.894717906
E(TOT)                                     ...   -229.605572508

MULLIKEN ATOMIC CHARGES
-----------------------
   0 C :   -0.571927
   1 O :   -0.155471
   2 C :   -0.580802
   3 C :   -0.483959
   4 C :   -0.502560
   5 H :    0.658240
   6 H :    0.690712
   7 H :    0.468705
   8 H :    0.477061
Sum of atomic charges:    0.0000000

LOEWDIN ATOMIC CHARGES
----------------------
   0 C :   -0.056874
   1 O :    0.575638
   2 C :   -0.056662
   3 C :    0.149284
   4 C :    0.149295
   5 H :   -0.190869
   6 H :   -0.190771
   7 H :   -0.189563
   8 H :   -0.189477

  Mayer bond orders larger than 0.100000
B(  0-C ,  1-O ) :   0.9818 B(  0-C ,  3-C ) :   1.2084 B(  0-C ,  5-H ) :   0.4750
B(  1-O ,  2-C ) :   0.9873 B(  2-C ,  4-C ) :   1.2046 B(  2-C ,  6-H ) :   0.4146
B(  3-C ,  4-C ) :   1.1473 B(  3-C ,  7-H ) :   0.8006 B(  4-C ,  8-H ) :   0.7903

FINAL SINGLE POINT ENERGY      -229.605572507963

DIPOLE MOMENT
-------------
                                X             Y             Z
Electronic contribution:     -0.96516      -1.34397      -0.00112
Nuclear contribution   :      1.10741       1.54133       0.00000
                        -----------------------------------------
Total Dipole Moment    :      0.14225       0.19736      -0.00112
                        -----------------------------------------
Magnitude (a.u.)       :      0.24328
Magnitude (Debye)      :      0.61838

Rotational constants in cm-1:     0.319544     0.312682     0.158038
Rotational constants in MHz :  9579.689039  9373.969929  4737.856534

                             ****ORCA TERMINATED NORMALLY****
TOTAL RUN TIME: 0 days 0 hours 26 minutes 0 seconds 530 msec
