                         Program Version 5.0.1 -  RELEASE  -
|  1>
|  2> %pal
|  3>   nprocs 6
|  4> end
|  5> %maxcore 2000
|  6>
|  7> ! MP2 aug-cc-pVTZ VeryTightSCF
|  8> ! RIJCOSX def2/J aug-cc-pVTZ/C
|  9>
| 10> %mp2
| 11>   density unrelaxed
| 12> end
| 13>
| 14> * xyzfile 0 1 furan.xyz
| 15>
| 16>
| 17>                          ****END OF INPUT****

CARTESIAN COORDINATES (ANGSTROEM)
---------------------------------
  C     -0.396763    1.309389   -0.000001
  O      0.016195    0.023197   -0.000000
  C      1.367142    0.042429    0.000001
  C      0.664447    2.148923    0.000002
  C      1.823692    1.316209   -0.000002
  H     -1.462896    1.463599   -0.000003
  H      1.854233   -0.918434    0.000003
  H      0.628890    3.226440    0.000004
  H      2.856160    1.626788   -0.000004

 Total Charge           Charge          ....    0
 Multiplicity           Mult            ....    1
 Number of Electrons    NEL             ....   36
 Basis Dimension        Dim             ....  322

ORBITAL ENERGIES
----------------

  NO   OCC          E(Eh)            E(eV)
   0   2.0000     -20.625629      -561.2519
   1   2.0000     -11.286713      -307.1271
   2   2.0000     -11.286626      -307.1247
   3   2.0000     -11.229695      -305.5755
   4   2.0000     -11.228690      -305.5482
   5   2.0000      -1.467315       -39.9277
   6   2.0000      -1.087116       -29.5819
   7   2.0000      -1.007723       -27.4215
   8   2.0000      -0.810211       -22.0470
   9   2.0000      -0.780813       -21.2470
  10   2.0000      -0.742575       -20.2065
  11   2.0000      -0.639109       -17.3911
  12   2.0000      -0.611269       -16.6335
  13   2.0000      -0.576544       -15.6886
  14   2.0000      -0.567321       -15.4376
  15   2.0000      -0.540410       -14.7053
  16   2.0000      -0.399483       -10.8705
  17   2.0000      -0.321012        -8.7352
  18   0.0000       0.029839         0.8119
  19   0.0000       0.035523         0.9666
  20   0.0000       0.038453         1.0463
  21   0.0000       0.049180         1.3382
  22   0.0000       0.080822         2.1993

MULLIKEN ATOMIC CHARGES
-----------------------
   0 C :   -0.520443
   1 O :   -0.260650
   2 C :   -0.482946
   3 C :   -0.552031
   4 C :   -0.552061
   5 H :    0.685148
   6 H :    0.731341
   7 H :    0.483873
   8 H :    0.467767
Sum of atomic charges:    0.0000000

LOEWDIN ATOMIC CHARGES
----------------------
   0 C :   -0.048299
   1 O :    0.555765
   2 C :   -0.047910
   3 C :    0.153766
   4 C :    0.154108
   5 H :   -0.190865
   6 H :   -0.190730
   7 H :   -0.192887
   8 H :   -0.192948

  Mayer bond orders larger than 0.100000
B(  0-C ,  1-O ) :   0.9562 B(  0-C ,  3-C ) :   1.2046 B(  0-C ,  5-H ) :   0.4512
B(  1-O ,  2-C ) :   0.9646 B(  2-C ,  4-C ) :   1.2347 B(  2-C ,  6-H ) :   0.3744
B(  3-C ,  4-C ) :   1.1079 B(  3-C ,  7-H ) :   0.8069 B(  4-C ,  8-H ) :   0.8287

MP2 TOTAL ENERGY:     -229.592515292 Eh
FINAL SINGLE POINT ENERGY      -229.592515292350

DIPOLE MOMENT
-------------
                                X             Y             Z
Electronic contribution:     -0.95269      -1.32599       0.00000
Nuclear contribution   :      1.10741       1.54133       0.00000
                        -----------------------------------------
Total Dipole Moment    :      0.15472       0.21534       0.00000
                        -----------------------------------------
Magnitude (a.u.)       :      0.26516
Magnitude (Debye)      :      0.67397

Rotational constants in cm-1:     0.319544     0.312682     0.158038
Rotational constants in MHz :  9579.689039  9373.969929  4737.856534

                             ****ORCA TERMINATED NORMALLY****
TOTAL RUN TIME: 0 days 0 hours 1 minutes 59 seconds 583 msec
