                         Program Version 5.0.1 -  RELEASE  -
|  1>
|  2> %pal
|  3>   nprocs 6
|  4> end
|  5> %maxcore 2000
|  6>
|  7> ! PBE aug-cc-pVTZ VeryTightSCF
|  8> ! RIJCOSX def2/J
|  9>
| 10> * xyzfile 0 1 water.xyz
| 11>
| 12>
| 13>                          ****END OF INPUT****

CARTESIAN COORDINATES (ANGSTROEM)
---------------------------------
  O     -0.006862   -0.009729    0.000000
  H     -0.291730    0.906540    0.000000
  H      0.951933    0.027139    0.000000

 Total Charge           Charge          ....    0
 Multiplicity           Mult            ....    1
 Number of Electrons    NEL             ....   10
 Basis Dimension        Dim             ....   92

ORBITAL ENERGIES
----------------

  NO   OCC          E(Eh)            E(eV)
   0   2.0000     -18.759635      -510.4756
   1   2.0000      -0.931838       -25.3566
   2   2.0000      -0.485790       -13.2190
   3   2.0000      -0.342036        -9.3073
   4   2.0000      -0.266149        -7.2423
   5   0.0000      -0.033806        -0.9199
   6   0.0000       0.017416         0.4739
   7   0.0000       0.070647         1.9224
   8   0.0000       0.086662         2.3582
   9   0.0000       0.094661         2.5759

MULLIKEN ATOMIC CHARGES
-----------------------
   0 O :   -0.322936
   1 H :    0.161465
   2 H :    0.161472
Sum of atomic charges:   -0.0000000

LOEWDIN ATOMIC CHARGES
----------------------
   0 O :    1.044442
   1 H :   -0.522194
   2 H :   -0.522248

  Mayer bond orders larger than 0.100000
B(  0-O ,  1-H ) :   1.0534 B(  0-O ,  2-H ) :   1.0534

FINAL SINGLE POINT ENERGY       -76.380328482503

DIPOLE MOMENT
-------------
                                X             Y             Z
Electronic contribution:     -0.15472      -0.21883       0.00000
Nuclear contribution   :      0.56095       0.79335       0.00000
                        -----------------------------------------
Total Dipole Moment    :      0.40623       0.57452       0.00000
                        -----------------------------------------
Magnitude (a.u.)       :      0.70363
Magnitude (Debye)      :      1.78849

Rotational constants in cm-1:    27.639122    14.416842     9.474729
Rotational constants in MHz : 828600.029089 432206.038942 284045.219578

                             ****ORCA TERMINATED NORMALLY****
TOTAL RUN TIME: 0 days 0 hours 0 minutes 0 seconds 796 msec
