                         Program Version 5.0.1 -  RELEASE  -
|  1>
|  2> %pal
|  3>   nprocs 6
|  4> end
|  5> %maxcore 2000
|  6>
|  7> ! HF aug-cc-pVTZ VeryTightSCF
|  8> ! RIJCOSX def2/J
|  9>
| 10> * xyzfile 0 1 acetone.xyz
| 11>
| 12>
| 13>                          ****END OF INPUT****

CARTESIAN COORDINATES (ANGSTROEM)
---------------------------------
  C      0.106474   -1.346767    0.711222
  C      0.095987   -0.265756   -0.337712
  C      1.322464   -0.164144   -1.207052
  O     -0.847125    0.472222   -0.479154
  H     -0.825316   -1.329454    1.273255
  H      0.237056   -2.325803    0.241198
  H      0.952178   -1.208267    1.390518
  H      1.429999   -1.076538   -1.801306
  H      2.224161   -0.079433   -0.594775
  H      1.240061    0.694030   -1.871333

 Total Charge           Charge          ....    0
 Multiplicity           Mult            ....    1
 Number of Electrons    NEL             ....   32
 Basis Dimension        Dim             ....  322

ORBITAL ENERGIES
----------------

  NO   OCC          E(Eh)            E(eV)
   0   2.0000     -20.544875      -559.0545
   1   2.0000     -11.330450      -308.3172
   2   2.0000     -11.234892      -305.7169
   3   2.0000     -11.234819      -305.7150
   4   2.0000      -1.390273       -37.8313
   5   2.0000      -1.044135       -28.4124
   6   2.0000      -0.968402       -26.3516
   7   2.0000      -0.741981       -20.1903
   8   2.0000      -0.647685       -17.6244
   9   2.0000      -0.638314       -17.3694
  10   2.0000      -0.624845       -17.0029
  11   2.0000      -0.563366       -15.3300
  12   2.0000      -0.559267       -15.2184
  13   2.0000      -0.537564       -14.6279
  14   2.0000      -0.490265       -13.3408
  15   2.0000      -0.414223       -11.2716
  16   0.0000       0.026521         0.7217
  17   0.0000       0.037342         1.0161
  18   0.0000       0.040319         1.0971
  19   0.0000       0.050171         1.3652
  20   0.0000       0.062029         1.6879

MULLIKEN ATOMIC CHARGES
-----------------------
   0 C :   -0.814548
   1 C :    0.534258
   2 C :   -0.830461
   3 O :   -0.730985
   4 H :    0.293155
   5 H :    0.310965
   6 H :    0.312248
   7 H :    0.302688
   8 H :    0.326639
   9 H :    0.296041
Sum of atomic charges:   -0.0000000

LOEWDIN ATOMIC CHARGES
----------------------
   0 C :    0.575038
   1 C :   -0.554969
   2 C :    0.575419
   3 O :    0.458918
   4 H :   -0.181742
   5 H :   -0.172117
   6 H :   -0.173290
   7 H :   -0.171585
   8 H :   -0.174186
   9 H :   -0.181486

  Mayer bond orders larger than 0.100000
B(  0-C ,  1-C ) :   0.8929 B(  0-C ,  4-H ) :   0.9445 B(  0-C ,  5-H ) :   0.9209
B(  0-C ,  6-H ) :   0.9187 B(  1-C ,  2-C ) :   0.9032 B(  1-C ,  3-O ) :   1.3751
B(  2-C ,  7-H ) :   0.9220 B(  2-C ,  8-H ) :   0.9062 B(  2-C ,  9-H ) :   0.9445

FINAL SINGLE POINT ENERGY      -192.036962743593

DIPOLE MOMENT
-------------
                                X             Y             Z
Electronic contribution:     -2.90307       2.30774      -0.41459
Nuclear contribution   :      3.94268      -3.12812       0.56596
                        -----------------------------------------
Total Dipole Moment    :      1.03961      -0.82038       0.15136
                        -----------------------------------------
Magnitude (a.u.)       :      1.33294
Magnitude (Debye)      :      3.38805

Rotational constants in cm-1:     0.341435     0.287079     0.165459
Rotational constants in MHz : 10235.958159  8606.416007  4960.349413

                             ****ORCA TERMINATED NORMALLY****
TOTAL RUN TIME: 0 days 0 hours 0 minutes 16 seconds 743 msec
