                         Program Version 5.0.1 -  RELEASE  -
|  1>
|  2> %pal
|  3>   nprocs 6
|  4> end
|  5> %maxcore 2000
|  6>
|  7> ! DLPNO-CCSD aug-cc-pVTZ VeryTightSCF
|  8> ! RIJCOSX def2/J aug-cc-pVTZ/C
|  9> ! TightPNO
| 10>
| 11> %mdci
| 12>   density unrelaxed
| 13> end
| 14>
| 15> * xyzfile 0 1 water.xyz
| 16>
| 17>
| 18>                          ****END OF INPUT****

CARTESIAN COORDINATES (ANGSTROEM)
---------------------------------
  O     -0.006862   -0.009729    0.000000
  H     -0.291730    0.906540    0.000000
  H      0.951933    0.027139    0.000000

 Total Charge           Charge          ....    0
 Multiplicity           Mult            ....    1
 Number of Electrons    NEL             ....   10
 Basis Dimension        Dim             ....   92

ORBITAL ENERGIES
----------------

  NO   OCC          E(Eh)            E(eV)
   0   2.0000     -20.567310      -559.6650
   1   2.0000      -1.352081       -36.7920
   2   2.0000      -0.717711       -19.5299
   3   2.0000      -0.583428       -15.8759
   4   2.0000      -0.510008       -13.8780
   5   0.0000       0.029879         0.8130
   6   0.0000       0.048095         1.3087
   7   0.0000       0.136224         3.7069
   8   0.0000       0.158653         4.3172
   9   0.0000       0.174885         4.7589

E(0)                                       ...    -76.060655711
E(0)                                       ...    -76.060655711
E(CORR)(strong-pairs)                      ...     -0.273288539
E(CORR)(weak-pairs)                        ...     -0.000032391
E(CORR)(corrected)                         ...     -0.273320929
E(TOT)                                     ...    -76.333976641

MULLIKEN ATOMIC CHARGES
-----------------------
   0 O :   -0.411644
   1 H :    0.205246
   2 H :    0.206397
Sum of atomic charges:   -0.0000000

LOEWDIN ATOMIC CHARGES
----------------------
   0 O :    1.029977
   1 H :   -0.514960
   2 H :   -0.515017

  Mayer bond orders larger than 0.100000
B(  0-O ,  1-H ) :   0.9441 B(  0-O ,  2-H ) :   0.9426

FINAL SINGLE POINT ENERGY       -76.333976640816

DIPOLE MOMENT
-------------
                                X             Y             Z
Electronic contribution:     -0.14242      -0.20145      -0.00000
Nuclear contribution   :      0.56095       0.79335       0.00000
                        -----------------------------------------
Total Dipole Moment    :      0.41853       0.59190      -0.00000
                        -----------------------------------------
Magnitude (a.u.)       :      0.72493
Magnitude (Debye)      :      1.84262

Rotational constants in cm-1:    27.639122    14.416842     9.474729
Rotational constants in MHz : 828600.029089 432206.038942 284045.219578

                             ****ORCA TERMINATED NORMALLY****
TOTAL RUN TIME: 0 days 0 hours 0 minutes 31 seconds 944 msec
