                         Program Version 5.0.1 -  RELEASE  -
|  1>
|  2> %pal
|  3>   nprocs 6
|  4> end
|  5> %maxcore 2000
|  6>
|  7> ! MP2 aug-cc-pVTZ VeryTightSCF
|  8> ! RIJCOSX def2/J aug-cc-pVTZ/C
|  9>
| 10> %mp2
| 11>   density unrelaxed
| 12> end
| 13>
| 14> * xyzfile 0 1 dimethyl_ether.xyz
| 15>
| 16>
| 17>                          ****END OF INPUT****

CARTESIAN COORDINATES (ANGSTROEM)
---------------------------------
  C      1.421150    0.000215   -0.000736
  O      0.022185    0.015743    0.027526
  C     -0.474248    0.669427    1.160610
  H      1.836379    1.018259   -0.021558
  H      1.729003   -0.524689   -0.905319
  H      1.837060   -0.522263    0.872917
  H     -0.149575    0.174382    2.087263
  H     -1.562882    0.642173    1.108511
  H     -0.145733    1.718173    1.198445

 Total Charge           Charge          ....    0
 Multiplicity           Mult            ....    1
 Number of Electrons    NEL             ....   26
 Basis Dimension        Dim             ....  276

ORBITAL ENERGIES
----------------

  NO   OCC          E(Eh)            E(eV)
   0   2.0000     -20.557622      -559.4013
   1   2.0000     -11.269392      -306.6558
   2   2.0000     -11.269347      -306.6545
   3   2.0000      -1.380749       -37.5721
   4   2.0000      -0.970221       -26.4011
   5   2.0000      -0.872820       -23.7506
   6   2.0000      -0.661733       -18.0067
   7   2.0000      -0.653233       -17.7754
   8   2.0000      -0.643796       -17.5186
   9   2.0000      -0.548173       -14.9166
  10   2.0000      -0.526071       -14.3151
  11   2.0000      -0.482034       -13.1168
  12   2.0000      -0.423947       -11.5362
  13   0.0000       0.031048         0.8448
  14   0.0000       0.041182         1.1206
  15   0.0000       0.046317         1.2603
  16   0.0000       0.047926         1.3041
  17   0.0000       0.063401         1.7252

MULLIKEN ATOMIC CHARGES
-----------------------
   0 C :   -0.740876
   1 O :   -0.493522
   2 C :   -0.751049
   3 H :    0.315464
   4 H :    0.342078
   5 H :    0.332090
   6 H :    0.309521
   7 H :    0.363030
   8 H :    0.323265
Sum of atomic charges:    0.0000000

LOEWDIN ATOMIC CHARGES
----------------------
   0 C :    0.283033
   1 O :    0.523589
   2 C :    0.282608
   3 H :   -0.178997
   4 H :   -0.186500
   5 H :   -0.179085
   6 H :   -0.179129
   7 H :   -0.186422
   8 H :   -0.179096

  Mayer bond orders larger than 0.100000
B(  0-C ,  1-O ) :   0.8470 B(  0-C ,  3-H ) :   0.8506 B(  0-C ,  4-H ) :   0.8839
B(  0-C ,  5-H ) :   0.8292 B(  1-O ,  2-C ) :   0.8630 B(  2-C ,  6-H ) :   0.8539
B(  2-C ,  7-H ) :   0.8600 B(  2-C ,  8-H ) :   0.8388

MP2 TOTAL ENERGY:     -154.737856425 Eh
FINAL SINGLE POINT ENERGY      -154.737856424602

DIPOLE MOMENT
-------------
                                X             Y             Z
Electronic contribution:     -1.14225      -0.80733      -1.39841
Nuclear contribution   :      1.45098       1.02567       1.77571
                        -----------------------------------------
Total Dipole Moment    :      0.30873       0.21834       0.37731
                        -----------------------------------------
Magnitude (a.u.)       :      0.53418
Magnitude (Debye)      :      1.35778

Rotational constants in cm-1:     1.317439     0.339128     0.300454
Rotational constants in MHz : 39495.829313 10166.792810  9007.384184

                             ****ORCA TERMINATED NORMALLY****
TOTAL RUN TIME: 0 days 0 hours 0 minutes 55 seconds 576 msec
