                         Program Version 5.0.1 -  RELEASE  -
|  1>
|  2> %pal
|  3>   nprocs 6
|  4> end
|  5> %maxcore 2000
|  6>
|  7> ! MP2 aug-cc-pVTZ VeryTightSCF
|  8> ! RIJCOSX def2/J aug-cc-pVTZ/C
|  9>
| 10> %mp2
| 11>   density unrelaxed
| 12> end
| 13>
| 14> * xyzfile 0 1 methanol.xyz
| 15>
| 16>
| 17>                          ****END OF INPUT****

CARTESIAN COORDINATES (ANGSTROEM)
---------------------------------
  O      1.428104   -0.010026    0.000000
  C      0.013173    0.020514    0.000000
  H      1.737386    0.895544   -0.000000
  H     -0.328469   -1.014055    0.000000
  H     -0.386767    0.515986    0.893450
  H     -0.386767    0.515986   -0.893450

 Total Charge           Charge          ....    0
 Multiplicity           Mult            ....    1
 Number of Electrons    NEL             ....   18
 Basis Dimension        Dim             ....  184

ORBITAL ENERGIES
----------------

  NO   OCC          E(Eh)            E(eV)
   0   2.0000     -20.559461      -559.4514
   1   2.0000     -11.272042      -306.7279
   2   2.0000      -1.361008       -37.0349
   3   2.0000      -0.924696       -25.1623
   4   2.0000      -0.692747       -18.8506
   5   2.0000      -0.620822       -16.8934
   6   2.0000      -0.594768       -16.1844
   7   2.0000      -0.503917       -13.7123
   8   2.0000      -0.451250       -12.2791
   9   0.0000       0.029095         0.7917
  10   0.0000       0.043584         1.1860
  11   0.0000       0.047243         1.2855
  12   0.0000       0.053642         1.4597
  13   0.0000       0.099514         2.7079

MULLIKEN ATOMIC CHARGES
-----------------------
   0 O :   -0.486245
   1 C :   -0.621805
   2 H :    0.190567
   3 H :    0.326787
   4 H :    0.295353
   5 H :    0.295341
Sum of atomic charges:    0.0000000

LOEWDIN ATOMIC CHARGES
----------------------
   0 O :    0.777262
   1 C :    0.309201
   2 H :   -0.515151
   3 H :   -0.197021
   4 H :   -0.187145
   5 H :   -0.187145

  Mayer bond orders larger than 0.100000
B(  0-O ,  1-C ) :   0.7685 B(  0-O ,  2-H ) :   0.9237 B(  1-C ,  3-H ) :   0.8585
B(  1-C ,  4-H ) :   0.8690 B(  1-C ,  5-H ) :   0.8690

MP2 TOTAL ENERGY:     -115.529042088 Eh
FINAL SINGLE POINT ENERGY      -115.529042087853

DIPOLE MOMENT
-------------
                                X             Y             Z
Electronic contribution:      1.76902      -0.17571      -0.00000
Nuclear contribution   :     -2.16318       0.73846      -0.00000
                        -----------------------------------------
Total Dipole Moment    :     -0.39416       0.56276      -0.00000
                        -----------------------------------------
Magnitude (a.u.)       :      0.68706
Magnitude (Debye)      :      1.74638

Rotational constants in cm-1:     4.269304     0.832063     0.803124
Rotational constants in MHz : 127990.526170 24944.610973 24077.065620

                             ****ORCA TERMINATED NORMALLY****
TOTAL RUN TIME: 0 days 0 hours 1 minutes 12 seconds 353 msec
