                         Program Version 5.0.1 -  RELEASE  -
|  1>
|  2> %pal
|  3>   nprocs 6
|  4> end
|  5> %maxcore 2000
|  6>
|  7> ! PBE aug-cc-pVTZ VeryTightSCF
|  8> ! RIJCOSX def2/J
|  9>
| 10> * xyzfile 0 1 ammonia.xyz
| 11>
| 12>
| 13>                          ****END OF INPUT****

CARTESIAN COORDINATES (ANGSTROEM)
---------------------------------
  N     -0.008597   -0.012177    0.021074
  H     -0.326859   -0.462229   -0.828075
  H     -0.326855    0.948260   -0.013741
  H      1.002981    0.007926   -0.013728

 Total Charge           Charge          ....    0
 Multiplicity           Mult            ....    1
 Number of Electrons    NEL             ....   10
 Basis Dimension        Dim             ....  115

ORBITAL ENERGIES
----------------

  NO   OCC          E(Eh)            E(eV)
   0   2.0000     -13.965775      -380.0281
   1   2.0000      -0.778761       -21.1912
   2   2.0000      -0.416046       -11.3212
   3   2.0000      -0.416037       -11.3209
   4   2.0000      -0.226094        -6.1523
   5   0.0000      -0.026047        -0.7088
   6   0.0000       0.020967         0.5705
   7   0.0000       0.020968         0.5706
   8   0.0000       0.061483         1.6731
   9   0.0000       0.082462         2.2439

MULLIKEN ATOMIC CHARGES
-----------------------
   0 N :   -0.399935
   1 H :    0.133299
   2 H :    0.133301
   3 H :    0.133335
Sum of atomic charges:   -0.0000000

LOEWDIN ATOMIC CHARGES
----------------------
   0 N :    1.087448
   1 H :   -0.362499
   2 H :   -0.362464
   3 H :   -0.362486

  Mayer bond orders larger than 0.100000
B(  0-N ,  1-H ) :   1.0005 B(  0-N ,  2-H ) :   1.0005 B(  0-N ,  3-H ) :   1.0005

FINAL SINGLE POINT ENERGY       -56.511367219719

DIPOLE MOMENT
-------------
                                X             Y             Z
Electronic contribution:     -0.09891      -0.13993       0.24233
Nuclear contribution   :      0.28927       0.40915      -0.70862
                        -----------------------------------------
Total Dipole Moment    :      0.19036       0.26922      -0.46629
                        -----------------------------------------
Magnitude (a.u.)       :      0.57109
Magnitude (Debye)      :      1.45158

Rotational constants in cm-1:     9.993697     9.993429     6.304550
Rotational constants in MHz : 299603.509327 299595.452230 189005.660235

                             ****ORCA TERMINATED NORMALLY****
TOTAL RUN TIME: 0 days 0 hours 0 minutes 1 seconds 947 msec
