                         Program Version 5.0.1 -  RELEASE  -
|  1>
|  2> %pal
|  3>   nprocs 6
|  4> end
|  5> %maxcore 2000
|  6>
|  7> ! B3LYP aug-cc-pVTZ VeryTightSCF
|  8> ! RIJCOSX def2/J
|  9>
| 10> * xyzfile 0 1 methanol.xyz
| 11>
| 12>
| 13>                          ****END OF INPUT****

CARTESIAN COORDINATES (ANGSTROEM)
---------------------------------
  O      1.428104   -0.010026    0.000000
  C      0.013173    0.020514    0.000000
  H      1.737386    0.895544   -0.000000
  H     -0.328469   -1.014055    0.000000
  H     -0.386767    0.515986    0.893450
  H     -0.386767    0.515986   -0.893450

 Total Charge           Charge          ....    0
 Multiplicity           Mult            ....    1
 Number of Electrons    NEL             ....   18
 Basis Dimension        Dim             ....  184

ORBITAL ENERGIES
----------------

  NO   OCC          E(Eh)            E(eV)
   0   2.0000     -19.131286      -520.5888
   1   2.0000     -10.213536      -277.9244
   2   2.0000      -1.025424       -27.9032
   3   2.0000      -0.684283       -18.6203
   4   2.0000      -0.512245       -13.9389
   5   2.0000      -0.442908       -12.0521
   6   2.0000      -0.429502       -11.6873
   7   2.0000      -0.342519        -9.3204
   8   2.0000      -0.281630        -7.6635
   9   0.0000      -0.012384        -0.3370
  10   0.0000       0.007664         0.2085
  11   0.0000       0.023336         0.6350
  12   0.0000       0.028078         0.7640
  13   0.0000       0.059838         1.6283

MULLIKEN ATOMIC CHARGES
-----------------------
   0 O :   -0.423588
   1 C :   -0.470500
   2 H :    0.144962
   3 H :    0.277269
   4 H :    0.235930
   5 H :    0.235927
Sum of atomic charges:    0.0000000

LOEWDIN ATOMIC CHARGES
----------------------
   0 O :    0.798376
   1 C :    0.296951
   2 H :   -0.517825
   3 H :   -0.199132
   4 H :   -0.189185
   5 H :   -0.189185

  Mayer bond orders larger than 0.100000
B(  0-O ,  1-C ) :   0.8359 B(  0-O ,  2-H ) :   1.0154 B(  1-C ,  3-H ) :   0.9157
B(  1-C ,  4-H ) :   0.9254 B(  1-C ,  5-H ) :   0.9254

FINAL SINGLE POINT ENERGY      -115.710579068966

DIPOLE MOMENT
-------------
                                X             Y             Z
Electronic contribution:      1.79935      -0.19909      -0.00000
Nuclear contribution   :     -2.16318       0.73846      -0.00000
                        -----------------------------------------
Total Dipole Moment    :     -0.36383       0.53938      -0.00000
                        -----------------------------------------
Magnitude (a.u.)       :      0.65061
Magnitude (Debye)      :      1.65373

Rotational constants in cm-1:     4.269304     0.832063     0.803124
Rotational constants in MHz : 127990.526170 24944.610973 24077.065620

                             ****ORCA TERMINATED NORMALLY****
TOTAL RUN TIME: 0 days 0 hours 0 minutes 43 seconds 549 msec
