                         Program Version 5.0.1 -  RELEASE  -
|  1>
|  2> %pal
|  3>   nprocs 6
|  4> end
|  5> %maxcore 2000
|  6>
|  7> ! B3LYP aug-cc-pVTZ VeryTightSCF
|  8> ! RIJCOSX def2/J
|  9>
| 10> * xyzfile 0 1 acetone.xyz
| 11>
| 12>
| 13>                          ****END OF INPUT****

CARTESIAN COORDINATES (ANGSTROEM)
---------------------------------
  C      0.106474   -1.346767    0.711222
  C      0.095987   -0.265756   -0.337712
  C      1.322464   -0.164144   -1.207052
  O     -0.847125    0.472222   -0.479154
  H     -0.825316   -1.329454    1.273255
  H      0.237056   -2.325803    0.241198
  H      0.952178   -1.208267    1.390518
  H      1.429999   -1.076538   -1.801306
  H      2.224161   -0.079433   -0.594775
  H      1.240061    0.694030   -1.871333

 Total Charge           Charge          ....    0
 Multiplicity           Mult            ....    1
 Number of Electrons    NEL             ....   32
 Basis Dimension        Dim             ....  322

ORBITAL ENERGIES
----------------

  NO   OCC          E(Eh)            E(eV)
   0   2.0000     -19.118418      -520.2386
   1   2.0000     -10.265124      -279.3282
   2   2.0000     -10.178358      -276.9672
   3   2.0000     -10.178261      -276.9646
   4   2.0000      -1.048625       -28.5345
   5   2.0000      -0.775424       -21.1003
   6   2.0000      -0.715395       -19.4669
   7   2.0000      -0.536230       -14.5916
   8   2.0000      -0.466854       -12.7037
   9   2.0000      -0.466132       -12.6841
  10   2.0000      -0.456681       -12.4269
  11   2.0000      -0.407342       -11.0844
  12   2.0000      -0.401457       -10.9242
  13   2.0000      -0.383724       -10.4417
  14   2.0000      -0.357035        -9.7154
  15   2.0000      -0.254859        -6.9351
  16   0.0000      -0.023752        -0.6463
  17   0.0000      -0.014924        -0.4061
  18   0.0000       0.009930         0.2702
  19   0.0000       0.019320         0.5257
  20   0.0000       0.025117         0.6835

MULLIKEN ATOMIC CHARGES
-----------------------
   0 C :   -0.622553
   1 C :    0.584016
   2 C :   -0.626699
   3 O :   -0.644000
   4 H :    0.196232
   5 H :    0.229135
   6 H :    0.228017
   7 H :    0.225835
   8 H :    0.234164
   9 H :    0.195855
Sum of atomic charges:   -0.0000000

LOEWDIN ATOMIC CHARGES
----------------------
   0 C :    0.560862
   1 C :   -0.567827
   2 C :    0.561309
   3 O :    0.495089
   4 H :   -0.181923
   5 H :   -0.170807
   6 H :   -0.171955
   7 H :   -0.170244
   8 H :   -0.172878
   9 H :   -0.181627

  Mayer bond orders larger than 0.100000
B(  0-C ,  1-C ) :   0.8840 B(  0-C ,  4-H ) :   0.9797 B(  0-C ,  5-H ) :   0.9510
B(  0-C ,  6-H ) :   0.9509 B(  1-C ,  2-C ) :   0.8833 B(  1-C ,  3-O ) :   1.3472
B(  2-C ,  7-H ) :   0.9489 B(  2-C ,  8-H ) :   0.9491 B(  2-C ,  9-H ) :   0.9806

FINAL SINGLE POINT ENERGY      -193.118631095602

DIPOLE MOMENT
-------------
                                X             Y             Z
Electronic contribution:     -3.00187       2.38393      -0.43020
Nuclear contribution   :      3.94268      -3.12812       0.56596
                        -----------------------------------------
Total Dipole Moment    :      0.94081      -0.74419       0.13576
                        -----------------------------------------
Magnitude (a.u.)       :      1.20722
Magnitude (Debye)      :      3.06850

Rotational constants in cm-1:     0.341435     0.287079     0.165459
Rotational constants in MHz : 10235.958159  8606.416007  4960.349413

                             ****ORCA TERMINATED NORMALLY****
TOTAL RUN TIME: 0 days 0 hours 0 minutes 20 seconds 476 msec
