                         Program Version 5.0.1 -  RELEASE  -
|  1>
|  2> %pal
|  3>   nprocs 6
|  4> end
|  5> %maxcore 2000
|  6>
|  7> ! PBE0 def2-TZVP TightOPT Freq
|  8> ! RIJCOSX def2/J
|  9>
| 10> * xyzfile 0 1 dimethyl_ether.xyz
| 11>
| 12>
| 13>                          ****END OF INPUT****
 Total Charge           Charge          ....    0
 Multiplicity           Mult            ....    1
 Number of Electrons    NEL             ....   26
FINAL SINGLE POINT ENERGY      -154.900929775869
FINAL SINGLE POINT ENERGY      -154.903143018991
FINAL SINGLE POINT ENERGY      -154.903293139501
FINAL SINGLE POINT ENERGY      -154.903322158999
FINAL SINGLE POINT ENERGY      -154.903328719360
                    ***********************HURRAY********************

CARTESIAN COORDINATES (ANGSTROEM)
---------------------------------
  C      1.421150    0.000215   -0.000736
  O      0.022185    0.015743    0.027526
  C     -0.474248    0.669427    1.160610
  H      1.836379    1.018259   -0.021558
  H      1.729003   -0.524689   -0.905319
  H      1.837060   -0.522263    0.872917
  H     -0.149575    0.174382    2.087263
  H     -1.562882    0.642173    1.108511
  H     -0.145733    1.718173    1.198445

 Multiplicity           Mult            ....    1
 Number of Electrons    NEL             ....   26
 Basis Dimension        Dim             ....  129

ORBITAL ENERGIES
----------------

  NO   OCC          E(Eh)            E(eV)
   0   2.0000     -19.209410      -522.7146
   1   2.0000     -10.258665      -279.1525
   2   2.0000     -10.258644      -279.1519
   3   2.0000      -1.069201       -29.0944
   4   2.0000      -0.744446       -20.2574
   5   2.0000      -0.656626       -17.8677
   6   2.0000      -0.494954       -13.4684
   7   2.0000      -0.489566       -13.3218
   8   2.0000      -0.488636       -13.2965
   9   2.0000      -0.406239       -11.0543
  10   2.0000      -0.388140       -10.5618
  11   2.0000      -0.335774        -9.1369
  12   2.0000      -0.272703        -7.4206
  13   0.0000       0.051362         1.3976
  14   0.0000       0.091944         2.5019
  15   0.0000       0.094642         2.5753
  16   0.0000       0.115616         3.1461
  17   0.0000       0.119947         3.2639

MULLIKEN ATOMIC CHARGES
-----------------------
   0 C :   -0.197196
   1 O :   -0.282742
   2 C :   -0.196731
   3 H :    0.103438
   4 H :    0.131674
   5 H :    0.103391
   6 H :    0.103361
   7 H :    0.131577
   8 H :    0.103228
Sum of atomic charges:   -0.0000000

LOEWDIN ATOMIC CHARGES
----------------------
   0 C :   -0.373615
   1 O :    0.123782
   2 C :   -0.373694
   3 H :    0.099754
   4 H :    0.112268
   5 H :    0.099766
   6 H :    0.099728
   7 H :    0.112272
   8 H :    0.099739

  Mayer bond orders larger than 0.100000
B(  0-C ,  1-O ) :   1.0033 B(  0-C ,  3-H ) :   0.9687 B(  0-C ,  4-H ) :   0.9708
B(  0-C ,  5-H ) :   0.9688 B(  1-O ,  2-C ) :   1.0033 B(  2-C ,  6-H ) :   0.9688
B(  2-C ,  7-H ) :   0.9708 B(  2-C ,  8-H ) :   0.9688

FINAL SINGLE POINT ENERGY      -154.903328778955

DIPOLE MOMENT
-------------
                                X             Y             Z
Electronic contribution:     -1.17470      -0.83043      -1.43782
Nuclear contribution   :      1.45098       1.02567       1.77571
                        -----------------------------------------
Total Dipole Moment    :      0.27628       0.19524       0.33790
                        -----------------------------------------
Magnitude (a.u.)       :      0.47814
Magnitude (Debye)      :      1.21535

VIBRATIONAL FREQUENCIES
-----------------------

Scaling factor for frequencies =  1.000000000  (already applied!)

   0:         0.00 cm**-1
   1:         0.00 cm**-1
   2:         0.00 cm**-1
   3:         0.00 cm**-1
   4:         0.00 cm**-1
   5:         0.00 cm**-1
   6:       214.68 cm**-1
   7:       247.21 cm**-1
   8:       412.34 cm**-1
   9:       976.63 cm**-1
  10:      1133.57 cm**-1
  11:      1163.50 cm**-1
  12:      1194.17 cm**-1
  13:      1225.62 cm**-1
  14:      1270.53 cm**-1
  15:      1453.86 cm**-1
  16:      1475.34 cm**-1
  17:      1483.67 cm**-1
  18:      1484.02 cm**-1
  19:      1491.01 cm**-1
  20:      1510.26 cm**-1
  21:      2976.76 cm**-1
  22:      2988.24 cm**-1
  23:      3026.88 cm**-1
  24:      3033.06 cm**-1
  25:      3133.89 cm**-1
  26:      3135.43 cm**-1

IR SPECTRUM
-----------

 Mode   freq       eps      Int      T**2         TX        TY        TZ
       cm**-1   L/(mol*cm) km/mol    a.u.
----------------------------------------------------------------------------
  6:    214.68   0.000000    0.00  0.000000  (-0.000081  0.000007 -0.000140)
  7:    247.21   0.001109    5.60  0.001400  (-0.000003  0.032397 -0.018710)
  8:    412.34   0.000472    2.38  0.000357  (-0.010950 -0.007674 -0.013349)
  9:    976.63   0.007329   37.04  0.002342  ( 0.028038  0.019751  0.034142)
 10:   1133.57   0.003737   18.89  0.001029  ( 0.026176 -0.009254 -0.016061)
 11:   1163.50   0.000000    0.00  0.000000  ( 0.000015 -0.000016 -0.000017)
 12:   1194.17   0.001309    6.62  0.000342  (-0.000505  0.016178 -0.008952)
 13:   1225.62   0.025241  127.56  0.006427  (-0.065430  0.022988  0.040215)
 14:   1270.53   0.001266    6.40  0.000311  (-0.010112 -0.007214 -0.012513)
 15:   1453.86   0.000325    1.64  0.000070  (-0.006825  0.002325  0.004203)
 16:   1475.34   0.000000    0.00  0.000000  (-0.000118 -0.000072  0.000028)
 17:   1483.67   0.000053    0.27  0.000011  ( 0.001474  0.002939  0.000581)
 18:   1484.02   0.003058   15.45  0.000643  (-0.000348  0.021966 -0.012664)
 19:   1491.01   0.002807   14.19  0.000587  (-0.019802  0.006729  0.012251)
 20:   1510.26   0.000684    3.46  0.000141  (-0.006830 -0.004860 -0.008429)
 21:   2976.76   0.011000   55.59  0.001153  ( 0.027865 -0.009633 -0.016852)
 22:   2988.24   0.011881   60.04  0.001241  (-0.020150 -0.014530 -0.024972)
 23:   3026.88   0.025925  131.01  0.002673  ( 0.000067 -0.044760  0.025871)
 24:   3033.06   0.000008    0.04  0.000001  (-0.000158 -0.000779  0.000480)
 25:   3133.89   0.005965   30.15  0.000594  (-0.019994  0.007006  0.012050)
 26:   3135.43   0.004219   21.32  0.000420  (-0.011663 -0.008381 -0.014618)

--------------------------
THERMOCHEMISTRY AT 298.15K
--------------------------

Temperature         ... 298.15 K
Pressure            ... 1.00 atm
Total Mass          ... 46.07 AMU

Throughout the following assumptions are being made:
  (1) The electronic state is orbitally nondegenerate
  (2) There are no thermally accessible electronically excited states
  (3) Hindered rotations indicated by low frequency modes are not
      treated as such but are treated as vibrations and this may
      cause some error
  (4) All equations used are the standard statistical mechanics
      equations for an ideal gas
  (5) All vibrations are strictly harmonic

freq.     214.68  E(vib)   ...       0.34
freq.     247.21  E(vib)   ...       0.31
freq.     412.34  E(vib)   ...       0.19
freq.     976.63  E(vib)   ...       0.03
freq.    1133.57  E(vib)   ...       0.01
freq.    1163.50  E(vib)   ...       0.01
freq.    1194.17  E(vib)   ...       0.01
freq.    1225.62  E(vib)   ...       0.01
freq.    1270.53  E(vib)   ...       0.01
freq.    1453.86  E(vib)   ...       0.00
freq.    1475.34  E(vib)   ...       0.00
freq.    1483.67  E(vib)   ...       0.00
freq.    1484.02  E(vib)   ...       0.00
freq.    1491.01  E(vib)   ...       0.00
freq.    1510.26  E(vib)   ...       0.00
freq.    2976.76  E(vib)   ...       0.00
freq.    2988.24  E(vib)   ...       0.00
freq.    3026.88  E(vib)   ...       0.00
freq.    3033.06  E(vib)   ...       0.00
freq.    3133.89  E(vib)   ...       0.00
freq.    3135.43  E(vib)   ...       0.00

------------
INNER ENERGY
------------

The inner energy is: U= E(el) + E(ZPE) + E(vib) + E(rot) + E(trans)
    E(el)   - is the total energy from the electronic structure calculation
              = E(kin-el) + E(nuc-el) + E(el-el) + E(nuc-nuc)
    E(ZPE)  - the the zero temperature vibrational energy from the frequency calculation
    E(vib)  - the the finite temperature correction to E(ZPE) due to population
              of excited vibrational states
    E(rot)  - is the rotational thermal energy
    E(trans)- is the translational thermal energy

Summary of contributions to the inner energy U:
Electronic energy                ...   -154.90332878 Eh
Zero point energy                ...      0.07980577 Eh      50.08 kcal/mol
Thermal vibrational correction   ...      0.00148429 Eh       0.93 kcal/mol
Thermal rotational correction    ...      0.00141627 Eh       0.89 kcal/mol
Thermal translational correction ...      0.00141627 Eh       0.89 kcal/mol
-----------------------------------------------------------------------
Total thermal energy                   -154.81920618 Eh

Summary of corrections to the electronic energy:
(perhaps to be used in another calculation)
Total thermal correction                  0.00431683 Eh       2.71 kcal/mol
Non-thermal (ZPE) correction              0.07980577 Eh      50.08 kcal/mol
-----------------------------------------------------------------------
Total correction                          0.08412260 Eh      52.79 kcal/mol

--------
ENTHALPY
--------

The enthalpy is H = U + kB*T
                kB is Boltzmann's constant
Total free energy                 ...   -154.81920618 Eh
Thermal Enthalpy correction       ...      0.00094421 Eh       0.59 kcal/mol
-----------------------------------------------------------------------
Total Enthalpy                    ...   -154.81826197 Eh

Note: Only C1 symmetry has been detected, increase convergence thresholds
      if your molecule has a higher symmetry. Symmetry factor of 1.0 is
      used for the rotational entropy correction.

Note: Rotational entropy computed according to Herzberg
Infrared and Raman Spectra, Chapter V,1, Van Nostrand Reinhold, 1945
Point Group:  C1, Symmetry Number:   1
Rotational constants in cm-1:     1.317439     0.339128     0.300454

Vibrational entropy computed according to the QRRHO of S. Grimme
Chem.Eur.J. 2012 18 9955

-------
ENTROPY
-------

The entropy contributions are T*S = T*(S(el)+S(vib)+S(rot)+S(trans))
     S(el)   - electronic entropy
     S(vib)  - vibrational entropy
     S(rot)  - rotational entropy
     S(trans)- translational entropy
The entropies will be listed as multiplied by the temperature to get
units of energy

Electronic entropy                ...      0.00000000 Eh      0.00 kcal/mol
Vibrational entropy               ...      0.00241163 Eh      1.51 kcal/mol
Rotational entropy                ...      0.01045884 Eh      6.56 kcal/mol
Translational entropy             ...      0.01777359 Eh     11.15 kcal/mol
-----------------------------------------------------------------------
Final entropy term                ...      0.03064406 Eh     19.23 kcal/mol

In case the symmetry of your molecule has not been determined correctly
or in case you have a reason to use a different symmetry number we print
out the resulting rotational entropy values for sn=1,12 :
 --------------------------------------------------------
|  sn= 1 | S(rot)=       0.01045884 Eh      6.56 kcal/mol|
|  sn= 2 | S(rot)=       0.00980438 Eh      6.15 kcal/mol|
|  sn= 3 | S(rot)=       0.00942155 Eh      5.91 kcal/mol|
|  sn= 4 | S(rot)=       0.00914993 Eh      5.74 kcal/mol|
|  sn= 5 | S(rot)=       0.00893924 Eh      5.61 kcal/mol|
|  sn= 6 | S(rot)=       0.00876709 Eh      5.50 kcal/mol|
|  sn= 7 | S(rot)=       0.00862155 Eh      5.41 kcal/mol|
|  sn= 8 | S(rot)=       0.00849547 Eh      5.33 kcal/mol|
|  sn= 9 | S(rot)=       0.00838426 Eh      5.26 kcal/mol|
|  sn=10 | S(rot)=       0.00828478 Eh      5.20 kcal/mol|
|  sn=11 | S(rot)=       0.00819479 Eh      5.14 kcal/mol|
|  sn=12 | S(rot)=       0.00811264 Eh      5.09 kcal/mol|
 --------------------------------------------------------

-------------------
GIBBS FREE ENERGY
-------------------

The Gibbs free energy is G = H - T*S

Total enthalpy                    ...   -154.81826197 Eh
Total entropy correction          ...     -0.03064406 Eh    -19.23 kcal/mol
-----------------------------------------------------------------------
Final Gibbs free energy         ...   -154.84890603 Eh

For completeness - the Gibbs free energy minus the electronic energy
G-E(el)                           ...      0.05442275 Eh     34.15 kcal/mol

                             ****ORCA TERMINATED NORMALLY****
TOTAL RUN TIME: 0 days 0 hours 0 minutes 50 seconds 396 msec
