                         Program Version 5.0.1 -  RELEASE  -
|  1>
|  2> %pal
|  3>   nprocs 6
|  4> end
|  5> %maxcore 2000
|  6>
|  7> ! PBE0 def2-TZVP TightOPT Freq
|  8> ! RIJCOSX def2/J
|  9>
| 10> * xyzfile 0 1 hydrogen_sulfide.xyz
| 11>
| 12>
| 13>                          ****END OF INPUT****
 Total Charge           Charge          ....    0
 Multiplicity           Mult            ....    1
 Number of Electrons    NEL             ....   18
FINAL SINGLE POINT ENERGY      -399.261020782356
FINAL SINGLE POINT ENERGY      -399.261374661826
FINAL SINGLE POINT ENERGY      -399.261404298779
FINAL SINGLE POINT ENERGY      -399.261404558759
FINAL SINGLE POINT ENERGY      -399.261404612411
                    ***********************HURRAY********************

CARTESIAN COORDINATES (ANGSTROEM)
---------------------------------
  S     -0.055330   -0.078266    0.000000
  H     -0.308816    1.238733    0.000000
  H      1.270816    0.121753    0.000000

 Multiplicity           Mult            ....    1
 Number of Electrons    NEL             ....   18
 Basis Dimension        Dim             ....   49

ORBITAL ENERGIES
----------------

  NO   OCC          E(Eh)            E(eV)
   0   2.0000     -89.026214     -2422.5265
   1   2.0000      -8.006794      -217.8760
   2   2.0000      -5.942572      -161.7056
   3   2.0000      -5.939871      -161.6321
   4   2.0000      -5.935784      -161.5209
   5   2.0000      -0.762524       -20.7493
   6   2.0000      -0.457967       -12.4619
   7   2.0000      -0.380462       -10.3529
   8   2.0000      -0.275002        -7.4832
   9   0.0000       0.021453         0.5838
  10   0.0000       0.030108         0.8193
  11   0.0000       0.190434         5.1820
  12   0.0000       0.223967         6.0945
  13   0.0000       0.298419         8.1204

MULLIKEN ATOMIC CHARGES
-----------------------
   0 S :   -0.344093
   1 H :    0.172069
   2 H :    0.172024
Sum of atomic charges:    0.0000000

LOEWDIN ATOMIC CHARGES
----------------------
   0 S :   -0.065198
   1 H :    0.032609
   2 H :    0.032589

  Mayer bond orders larger than 0.100000
B(  0-S ,  1-H ) :   0.9638 B(  0-S ,  2-H ) :   0.9638

FINAL SINGLE POINT ENERGY      -399.261404612398

DIPOLE MOMENT
-------------
                                X             Y             Z
Electronic contribution:     -0.68387      -0.96711      -0.00000
Nuclear contribution   :      0.94773       1.34033       0.00000
                        -----------------------------------------
Total Dipole Moment    :      0.26386       0.37322      -0.00000
                        -----------------------------------------
Magnitude (a.u.)       :      0.45707
Magnitude (Debye)      :      1.16178

VIBRATIONAL FREQUENCIES
-----------------------

Scaling factor for frequencies =  1.000000000  (already applied!)

   0:         0.00 cm**-1
   1:         0.00 cm**-1
   2:         0.00 cm**-1
   3:         0.00 cm**-1
   4:         0.00 cm**-1
   5:         0.00 cm**-1
   6:      1208.74 cm**-1
   7:      2724.45 cm**-1
   8:      2739.72 cm**-1

IR SPECTRUM
-----------

 Mode   freq       eps      Int      T**2         TX        TY        TZ
       cm**-1   L/(mol*cm) km/mol    a.u.
----------------------------------------------------------------------------
  6:   1208.74   0.000013    0.07  0.000003  ( 0.001059  0.001490  0.000000)
  7:   2724.45   0.000001    0.01  0.000000  (-0.000215 -0.000321  0.000000)
  8:   2739.72   0.000003    0.02  0.000000  (-0.000483  0.000339 -0.000000)

--------------------------
THERMOCHEMISTRY AT 298.15K
--------------------------

Temperature         ... 298.15 K
Pressure            ... 1.00 atm
Total Mass          ... 34.08 AMU

Throughout the following assumptions are being made:
  (1) The electronic state is orbitally nondegenerate
  (2) There are no thermally accessible electronically excited states
  (3) Hindered rotations indicated by low frequency modes are not
      treated as such but are treated as vibrations and this may
      cause some error
  (4) All equations used are the standard statistical mechanics
      equations for an ideal gas
  (5) All vibrations are strictly harmonic

freq.    1208.74  E(vib)   ...       0.01
freq.    2724.45  E(vib)   ...       0.00
freq.    2739.72  E(vib)   ...       0.00

------------
INNER ENERGY
------------

The inner energy is: U= E(el) + E(ZPE) + E(vib) + E(rot) + E(trans)
    E(el)   - is the total energy from the electronic structure calculation
              = E(kin-el) + E(nuc-el) + E(el-el) + E(nuc-nuc)
    E(ZPE)  - the the zero temperature vibrational energy from the frequency calculation
    E(vib)  - the the finite temperature correction to E(ZPE) due to population
              of excited vibrational states
    E(rot)  - is the rotational thermal energy
    E(trans)- is the translational thermal energy

Summary of contributions to the inner energy U:
Electronic energy                ...   -399.26140461 Eh
Zero point energy                ...      0.01520202 Eh       9.54 kcal/mol
Thermal vibrational correction   ...      0.00001623 Eh       0.01 kcal/mol
Thermal rotational correction    ...      0.00141627 Eh       0.89 kcal/mol
Thermal translational correction ...      0.00141627 Eh       0.89 kcal/mol
-----------------------------------------------------------------------
Total thermal energy                   -399.24335382 Eh

Summary of corrections to the electronic energy:
(perhaps to be used in another calculation)
Total thermal correction                  0.00284877 Eh       1.79 kcal/mol
Non-thermal (ZPE) correction              0.01520202 Eh       9.54 kcal/mol
-----------------------------------------------------------------------
Total correction                          0.01805080 Eh      11.33 kcal/mol

--------
ENTHALPY
--------

The enthalpy is H = U + kB*T
                kB is Boltzmann's constant
Total free energy                 ...   -399.24335382 Eh
Thermal Enthalpy correction       ...      0.00094421 Eh       0.59 kcal/mol
-----------------------------------------------------------------------
Total Enthalpy                    ...   -399.24240961 Eh

Note: Rotational entropy computed according to Herzberg
Infrared and Raman Spectra, Chapter V,1, Van Nostrand Reinhold, 1945
Point Group:  C2v, Symmetry Number:   2
Rotational constants in cm-1:    10.298825     8.936361     4.784670

Vibrational entropy computed according to the QRRHO of S. Grimme
Chem.Eur.J. 2012 18 9955

-------
ENTROPY
-------

The entropy contributions are T*S = T*(S(el)+S(vib)+S(rot)+S(trans))
     S(el)   - electronic entropy
     S(vib)  - vibrational entropy
     S(rot)  - rotational entropy
     S(trans)- translational entropy
The entropies will be listed as multiplied by the temperature to get
units of energy

Electronic entropy                ...      0.00000000 Eh      0.00 kcal/mol
Vibrational entropy               ...      0.00001901 Eh      0.01 kcal/mol
Rotational entropy                ...      0.00598247 Eh      3.75 kcal/mol
Translational entropy             ...      0.01734652 Eh     10.89 kcal/mol
-----------------------------------------------------------------------
Final entropy term                ...      0.02334799 Eh     14.65 kcal/mol

In case the symmetry of your molecule has not been determined correctly
or in case you have a reason to use a different symmetry number we print
out the resulting rotational entropy values for sn=1,12 :
 --------------------------------------------------------
|  sn= 1 | S(rot)=       0.00663692 Eh      4.16 kcal/mol|
|  sn= 2 | S(rot)=       0.00598247 Eh      3.75 kcal/mol|
|  sn= 3 | S(rot)=       0.00559964 Eh      3.51 kcal/mol|
|  sn= 4 | S(rot)=       0.00532801 Eh      3.34 kcal/mol|
|  sn= 5 | S(rot)=       0.00511732 Eh      3.21 kcal/mol|
|  sn= 6 | S(rot)=       0.00494518 Eh      3.10 kcal/mol|
|  sn= 7 | S(rot)=       0.00479963 Eh      3.01 kcal/mol|
|  sn= 8 | S(rot)=       0.00467355 Eh      2.93 kcal/mol|
|  sn= 9 | S(rot)=       0.00456235 Eh      2.86 kcal/mol|
|  sn=10 | S(rot)=       0.00446287 Eh      2.80 kcal/mol|
|  sn=11 | S(rot)=       0.00437288 Eh      2.74 kcal/mol|
|  sn=12 | S(rot)=       0.00429072 Eh      2.69 kcal/mol|
 --------------------------------------------------------

-------------------
GIBBS FREE ENERGY
-------------------

The Gibbs free energy is G = H - T*S

Total enthalpy                    ...   -399.24240961 Eh
Total entropy correction          ...     -0.02334799 Eh    -14.65 kcal/mol
-----------------------------------------------------------------------
Final Gibbs free energy         ...   -399.26575760 Eh

For completeness - the Gibbs free energy minus the electronic energy
G-E(el)                           ...     -0.00435299 Eh     -2.73 kcal/mol

                             ****ORCA TERMINATED NORMALLY****
TOTAL RUN TIME: 0 days 0 hours 5 minutes 2 seconds 595 msec
