                         Program Version 5.0.1 -  RELEASE  -
|  1>
|  2> %pal
|  3>   nprocs 6
|  4> end
|  5> %maxcore 2000
|  6>
|  7> ! B3LYP aug-cc-pVTZ VeryTightSCF
|  8> ! RIJCOSX def2/J
|  9>
| 10> * xyzfile 0 1 water.xyz
| 11>
| 12>
| 13>                          ****END OF INPUT****

CARTESIAN COORDINATES (ANGSTROEM)
---------------------------------
  O     -0.006862   -0.009729    0.000000
  H     -0.291730    0.906540    0.000000
  H      0.951933    0.027139    0.000000

 Total Charge           Charge          ....    0
 Multiplicity           Mult            ....    1
 Number of Electrons    NEL             ....   10
 Basis Dimension        Dim             ....   92

ORBITAL ENERGIES
----------------

  NO   OCC          E(Eh)            E(eV)
   0   2.0000     -19.136568      -520.7325
   1   2.0000      -1.018703       -27.7203
   2   2.0000      -0.538184       -14.6447
   3   2.0000      -0.395809       -10.7705
   4   2.0000      -0.320910        -8.7324
   5   0.0000      -0.021856        -0.5947
   6   0.0000       0.022301         0.6068
   7   0.0000       0.080421         2.1884
   8   0.0000       0.097749         2.6599
   9   0.0000       0.105020         2.8577

MULLIKEN ATOMIC CHARGES
-----------------------
   0 O :   -0.355235
   1 H :    0.177707
   2 H :    0.177527
Sum of atomic charges:   -0.0000000

LOEWDIN ATOMIC CHARGES
----------------------
   0 O :    1.037236
   1 H :   -0.518580
   2 H :   -0.518655

  Mayer bond orders larger than 0.100000
B(  0-O ,  1-H ) :   1.0323 B(  0-O ,  2-H ) :   1.0326

FINAL SINGLE POINT ENERGY       -76.429305780795

DIPOLE MOMENT
-------------
                                X             Y             Z
Electronic contribution:     -0.14173      -0.20043      -0.00000
Nuclear contribution   :      0.56095       0.79335       0.00000
                        -----------------------------------------
Total Dipole Moment    :      0.41922       0.59293      -0.00000
                        -----------------------------------------
Magnitude (a.u.)       :      0.72616
Magnitude (Debye)      :      1.84575

Rotational constants in cm-1:    27.639122    14.416842     9.474729
Rotational constants in MHz : 828600.029089 432206.038942 284045.219578

                             ****ORCA TERMINATED NORMALLY****
TOTAL RUN TIME: 0 days 0 hours 0 minutes 1 seconds 583 msec
