                         Program Version 5.0.1 -  RELEASE  -
|  1>
|  2> %pal
|  3>   nprocs 6
|  4> end
|  5> %maxcore 2000
|  6>
|  7> ! PBE0 def2-TZVP TightOPT Freq
|  8> ! RIJCOSX def2/J
|  9>
| 10> * xyzfile 0 1 water.xyz
| 11>
| 12>
| 13>                          ****END OF INPUT****
 Total Charge           Charge          ....    0
 Multiplicity           Mult            ....    1
 Number of Electrons    NEL             ....   10
FINAL SINGLE POINT ENERGY       -76.376722609546
FINAL SINGLE POINT ENERGY       -76.377466268693
FINAL SINGLE POINT ENERGY       -76.377476810849
FINAL SINGLE POINT ENERGY       -76.377479862694
FINAL SINGLE POINT ENERGY       -76.377479912319
                    ***********************HURRAY********************

CARTESIAN COORDINATES (ANGSTROEM)
---------------------------------
  O     -0.006862   -0.009729    0.000000
  H     -0.291730    0.906540    0.000000
  H      0.951933    0.027139    0.000000

 Multiplicity           Mult            ....    1
 Number of Electrons    NEL             ....   10
 Basis Dimension        Dim             ....   43

ORBITAL ENERGIES
----------------

  NO   OCC          E(Eh)            E(eV)
   0   2.0000     -19.201546      -522.5006
   1   2.0000      -1.038882       -28.2694
   2   2.0000      -0.546896       -14.8818
   3   2.0000      -0.402313       -10.9475
   4   2.0000      -0.326784        -8.8922
   5   0.0000       0.031511         0.8575
   6   0.0000       0.106228         2.8906
   7   0.0000       0.374118        10.1803
   8   0.0000       0.423034        11.5113
   9   0.0000       0.445171        12.1137

MULLIKEN ATOMIC CHARGES
-----------------------
   0 O :   -0.647014
   1 H :    0.323520
   2 H :    0.323494
Sum of atomic charges:   -0.0000000

LOEWDIN ATOMIC CHARGES
----------------------
   0 O :   -0.307888
   1 H :    0.153956
   2 H :    0.153932

  Mayer bond orders larger than 0.100000
B(  0-O ,  1-H ) :   0.9071 B(  0-O ,  2-H ) :   0.9072

FINAL SINGLE POINT ENERGY       -76.377479912658

DIPOLE MOMENT
-------------
                                X             Y             Z
Electronic contribution:     -0.09140      -0.12926       0.00000
Nuclear contribution   :      0.56095       0.79335       0.00000
                        -----------------------------------------
Total Dipole Moment    :      0.46955       0.66410       0.00000
                        -----------------------------------------
Magnitude (a.u.)       :      0.81333
Magnitude (Debye)      :      2.06732

VIBRATIONAL FREQUENCIES
-----------------------

Scaling factor for frequencies =  1.000000000  (already applied!)

   0:         0.00 cm**-1
   1:         0.00 cm**-1
   2:         0.00 cm**-1
   3:         0.00 cm**-1
   4:         0.00 cm**-1
   5:         0.00 cm**-1
   6:      1622.85 cm**-1
   7:      3850.35 cm**-1
   8:      3957.62 cm**-1

IR SPECTRUM
-----------

 Mode   freq       eps      Int      T**2         TX        TY        TZ
       cm**-1   L/(mol*cm) km/mol    a.u.
----------------------------------------------------------------------------
  6:   1622.85   0.016207   81.91  0.003117  (-0.032245 -0.045573 -0.000000)
  7:   3850.35   0.001221    6.17  0.000099  (-0.005730 -0.008134 -0.000000)
  8:   3957.62   0.009792   49.48  0.000772  ( 0.022681 -0.016051  0.000000)

--------------------------
THERMOCHEMISTRY AT 298.15K
--------------------------

Temperature         ... 298.15 K
Pressure            ... 1.00 atm
Total Mass          ... 18.02 AMU

Throughout the following assumptions are being made:
  (1) The electronic state is orbitally nondegenerate
  (2) There are no thermally accessible electronically excited states
  (3) Hindered rotations indicated by low frequency modes are not
      treated as such but are treated as vibrations and this may
      cause some error
  (4) All equations used are the standard statistical mechanics
      equations for an ideal gas
  (5) All vibrations are strictly harmonic

freq.    1622.85  E(vib)   ...       0.00
freq.    3850.35  E(vib)   ...       0.00
freq.    3957.62  E(vib)   ...       0.00

------------
INNER ENERGY
------------

The inner energy is: U= E(el) + E(ZPE) + E(vib) + E(rot) + E(trans)
    E(el)   - is the total energy from the electronic structure calculation
              = E(kin-el) + E(nuc-el) + E(el-el) + E(nuc-nuc)
    E(ZPE)  - the the zero temperature vibrational energy from the frequency calculation
    E(vib)  - the the finite temperature correction to E(ZPE) due to population
              of excited vibrational states
    E(rot)  - is the rotational thermal energy
    E(trans)- is the translational thermal energy

Summary of contributions to the inner energy U:
Electronic energy                ...    -76.37747991 Eh
Zero point energy                ...      0.02148498 Eh      13.48 kcal/mol
Thermal vibrational correction   ...      0.00000294 Eh       0.00 kcal/mol
Thermal rotational correction    ...      0.00141627 Eh       0.89 kcal/mol
Thermal translational correction ...      0.00141627 Eh       0.89 kcal/mol
-----------------------------------------------------------------------
Total thermal energy                    -76.35315945 Eh

Summary of corrections to the electronic energy:
(perhaps to be used in another calculation)
Total thermal correction                  0.00283548 Eh       1.78 kcal/mol
Non-thermal (ZPE) correction              0.02148498 Eh      13.48 kcal/mol
-----------------------------------------------------------------------
Total correction                          0.02432046 Eh      15.26 kcal/mol

--------
ENTHALPY
--------

The enthalpy is H = U + kB*T
                kB is Boltzmann's constant
Total free energy                 ...    -76.35315945 Eh
Thermal Enthalpy correction       ...      0.00094421 Eh       0.59 kcal/mol
-----------------------------------------------------------------------
Total Enthalpy                    ...    -76.35221524 Eh

Note: Rotational entropy computed according to Herzberg
Infrared and Raman Spectra, Chapter V,1, Van Nostrand Reinhold, 1945
Point Group:  C2v, Symmetry Number:   2
Rotational constants in cm-1:    27.639122    14.416842     9.474729

Vibrational entropy computed according to the QRRHO of S. Grimme
Chem.Eur.J. 2012 18 9955

-------
ENTROPY
-------

The entropy contributions are T*S = T*(S(el)+S(vib)+S(rot)+S(trans))
     S(el)   - electronic entropy
     S(vib)  - vibrational entropy
     S(rot)  - rotational entropy
     S(trans)- translational entropy
The entropies will be listed as multiplied by the temperature to get
units of energy

Electronic entropy                ...      0.00000000 Eh      0.00 kcal/mol
Vibrational entropy               ...      0.00000331 Eh      0.00 kcal/mol
Rotational entropy                ...      0.00496810 Eh      3.12 kcal/mol
Translational entropy             ...      0.01644380 Eh     10.32 kcal/mol
-----------------------------------------------------------------------
Final entropy term                ...      0.02141521 Eh     13.44 kcal/mol

In case the symmetry of your molecule has not been determined correctly
or in case you have a reason to use a different symmetry number we print
out the resulting rotational entropy values for sn=1,12 :
 --------------------------------------------------------
|  sn= 1 | S(rot)=       0.00562255 Eh      3.53 kcal/mol|
|  sn= 2 | S(rot)=       0.00496810 Eh      3.12 kcal/mol|
|  sn= 3 | S(rot)=       0.00458526 Eh      2.88 kcal/mol|
|  sn= 4 | S(rot)=       0.00431364 Eh      2.71 kcal/mol|
|  sn= 5 | S(rot)=       0.00410295 Eh      2.57 kcal/mol|
|  sn= 6 | S(rot)=       0.00393081 Eh      2.47 kcal/mol|
|  sn= 7 | S(rot)=       0.00378526 Eh      2.38 kcal/mol|
|  sn= 8 | S(rot)=       0.00365918 Eh      2.30 kcal/mol|
|  sn= 9 | S(rot)=       0.00354797 Eh      2.23 kcal/mol|
|  sn=10 | S(rot)=       0.00344849 Eh      2.16 kcal/mol|
|  sn=11 | S(rot)=       0.00335850 Eh      2.11 kcal/mol|
|  sn=12 | S(rot)=       0.00327635 Eh      2.06 kcal/mol|
 --------------------------------------------------------

-------------------
GIBBS FREE ENERGY
-------------------

The Gibbs free energy is G = H - T*S

Total enthalpy                    ...    -76.35221524 Eh
Total entropy correction          ...     -0.02141521 Eh    -13.44 kcal/mol
-----------------------------------------------------------------------
Final Gibbs free energy         ...    -76.37363045 Eh

For completeness - the Gibbs free energy minus the electronic energy
G-E(el)                           ...      0.00384946 Eh      2.42 kcal/mol

                             ****ORCA TERMINATED NORMALLY****
TOTAL RUN TIME: 0 days 0 hours 0 minutes 8 seconds 395 msec
