                         Program Version 5.0.1 -  RELEASE  -
|  1>
|  2> %pal
|  3>   nprocs 6
|  4> end
|  5> %maxcore 2000
|  6>
|  7> ! PBE0 def2-TZVP TightOPT Freq
|  8> ! RIJCOSX def2/J
|  9>
| 10> * xyzfile 0 1 furan.xyz
| 11>
| 12>
| 13>                          ****END OF INPUT****
 Total Charge           Charge          ....    0
 Multiplicity           Mult            ....    1
 Number of Electrons    NEL             ....   36
FINAL SINGLE POINT ENERGY      -229.828225449977
FINAL SINGLE POINT ENERGY      -229.842696298674
FINAL SINGLE POINT ENERGY      -229.844911762583
FINAL SINGLE POINT ENERGY      -229.845722787436
FINAL SINGLE POINT ENERGY      -229.845862925804
FINAL SINGLE POINT ENERGY      -229.845891872125
FINAL SINGLE POINT ENERGY      -229.845895743232
FINAL SINGLE POINT ENERGY      -229.845896554478
FINAL SINGLE POINT ENERGY      -229.845896649303
                    ***********************HURRAY********************

CARTESIAN COORDINATES (ANGSTROEM)
---------------------------------
  C     -0.396763    1.309389   -0.000001
  O      0.016195    0.023197   -0.000000
  C      1.367142    0.042429    0.000001
  C      0.664447    2.148923    0.000002
  C      1.823692    1.316209   -0.000002
  H     -1.462896    1.463599   -0.000003
  H      1.854233   -0.918434    0.000003
  H      0.628890    3.226440    0.000004
  H      2.856160    1.626788   -0.000004

 Multiplicity           Mult            ....    1
 Number of Electrons    NEL             ....   36
 Basis Dimension        Dim             ....  179

ORBITAL ENERGIES
----------------

  NO   OCC          E(Eh)            E(eV)
   0   2.0000     -19.277200      -524.5593
   1   2.0000     -10.270586      -279.4769
   2   2.0000     -10.270557      -279.4761
   3   2.0000     -10.222847      -278.1778
   4   2.0000     -10.222378      -278.1650
   5   2.0000      -1.148938       -31.2642
   6   2.0000      -0.827384       -22.5143
   7   2.0000      -0.771325       -20.9888
   8   2.0000      -0.620515       -16.8851
   9   2.0000      -0.587532       -15.9876
  10   2.0000      -0.563027       -15.3207
  11   2.0000      -0.474508       -12.9120
  12   2.0000      -0.460379       -12.5276
  13   2.0000      -0.423481       -11.5235
  14   2.0000      -0.413358       -11.2481
  15   2.0000      -0.389383       -10.5957
  16   2.0000      -0.297220        -8.0878
  17   2.0000      -0.244880        -6.6635
  18   0.0000       0.011078         0.3014
  19   0.0000       0.066182         1.8009
  20   0.0000       0.076506         2.0818
  21   0.0000       0.099945         2.7197
  22   0.0000       0.100827         2.7436

MULLIKEN ATOMIC CHARGES
-----------------------
   0 C :   -0.005212
   1 O :   -0.187633
   2 C :   -0.005877
   3 C :   -0.171927
   4 C :   -0.170266
   5 H :    0.141153
   6 H :    0.141111
   7 H :    0.129252
   8 H :    0.129400
Sum of atomic charges:   -0.0000000

LOEWDIN ATOMIC CHARGES
----------------------
   0 C :   -0.253378
   1 O :    0.347310
   2 C :   -0.253219
   3 C :   -0.193336
   4 C :   -0.193320
   5 H :    0.131309
   6 H :    0.131313
   7 H :    0.141649
   8 H :    0.141672

  Mayer bond orders larger than 0.100000
B(  0-C ,  1-O ) :   1.1138 B(  0-C ,  3-C ) :   1.6714 B(  0-C ,  5-H ) :   0.9654
B(  1-O ,  2-C ) :   1.1134 B(  2-C ,  4-C ) :   1.6717 B(  2-C ,  6-H ) :   0.9654
B(  3-C ,  4-C ) :   1.2442 B(  3-C ,  7-H ) :   0.9591 B(  4-C ,  8-H ) :   0.9589

FINAL SINGLE POINT ENERGY      -229.845896671637

DIPOLE MOMENT
-------------
                                X             Y             Z
Electronic contribution:     -0.97668      -1.35962      -0.00000
Nuclear contribution   :      1.10741       1.54133       0.00000
                        -----------------------------------------
Total Dipole Moment    :      0.13073       0.18171      -0.00000
                        -----------------------------------------
Magnitude (a.u.)       :      0.22385
Magnitude (Debye)      :      0.56898

VIBRATIONAL FREQUENCIES
-----------------------

Scaling factor for frequencies =  1.000000000  (already applied!)

   0:         0.00 cm**-1
   1:         0.00 cm**-1
   2:         0.00 cm**-1
   3:         0.00 cm**-1
   4:         0.00 cm**-1
   5:         0.00 cm**-1
   6:       618.81 cm**-1
   7:       631.68 cm**-1
   8:       745.46 cm**-1
   9:       765.18 cm**-1
  10:       854.80 cm**-1
  11:       880.47 cm**-1
  12:       890.44 cm**-1
  13:       893.62 cm**-1
  14:      1025.42 cm**-1
  15:      1072.19 cm**-1
  16:      1112.17 cm**-1
  17:      1176.64 cm**-1
  18:      1234.27 cm**-1
  19:      1289.88 cm**-1
  20:      1432.51 cm**-1
  21:      1533.31 cm**-1
  22:      1612.87 cm**-1
  23:      3264.41 cm**-1
  24:      3274.78 cm**-1
  25:      3293.23 cm**-1
  26:      3300.51 cm**-1

IR SPECTRUM
-----------

 Mode   freq       eps      Int      T**2         TX        TY        TZ
       cm**-1   L/(mol*cm) km/mol    a.u.
----------------------------------------------------------------------------
  6:    618.81   0.000000    0.00  0.000000  (-0.000001 -0.000001 -0.000344)
  7:    631.68   0.004901   24.77  0.002421  ( 0.000000  0.000000 -0.049207)
  8:    745.46   0.000000    0.00  0.000000  ( 0.000001  0.000002  0.000369)
  9:    765.18   0.021652  109.42  0.008830  ( 0.000000  0.000000  0.093971)
 10:    854.80   0.000026    0.13  0.000009  ( 0.000000  0.000000  0.003053)
 11:    880.47   0.000000    0.00  0.000000  ( 0.000000  0.000000 -0.000087)
 12:    890.44   0.002788   14.09  0.000977  ( 0.018273  0.025358 -0.000000)
 13:    893.62   0.000114    0.58  0.000040  (-0.005037  0.003822  0.000000)
 14:   1025.42   0.007999   40.42  0.002434  (-0.028805 -0.040058 -0.000000)
 15:   1072.19   0.000673    3.40  0.000196  (-0.011325  0.008224  0.000000)
 16:   1112.17   0.002930   14.81  0.000822  (-0.016847 -0.023202 -0.000000)
 17:   1176.64   0.000164    0.83  0.000043  ( 0.003874  0.005326  0.000000)
 18:   1234.27   0.003602   18.20  0.000911  (-0.024411  0.017743 -0.000000)
 19:   1289.88   0.000090    0.45  0.000022  ( 0.003786 -0.002729  0.000000)
 20:   1432.51   0.000525    2.65  0.000114  ( 0.006252  0.008680 -0.000000)
 21:   1533.31   0.004002   20.22  0.000814  (-0.016645 -0.023182 -0.000000)
 22:   1612.87   0.000053    0.27  0.000010  ( 0.002594 -0.001857  0.000000)
 23:   3264.41   0.000366    1.85  0.000035  ( 0.004809 -0.003448  0.000000)
 24:   3274.78   0.000005    0.02  0.000000  (-0.000255 -0.000615 -0.000000)
 25:   3293.23   0.000039    0.20  0.000004  (-0.001581  0.001089  0.000000)
 26:   3300.51   0.000002    0.01  0.000000  (-0.000134 -0.000380 -0.000000)

--------------------------
THERMOCHEMISTRY AT 298.15K
--------------------------

Temperature         ... 298.15 K
Pressure            ... 1.00 atm
Total Mass          ... 68.07 AMU

Throughout the following assumptions are being made:
  (1) The electronic state is orbitally nondegenerate
  (2) There are no thermally accessible electronically excited states
  (3) Hindered rotations indicated by low frequency modes are not
      treated as such but are treated as vibrations and this may
      cause some error
  (4) All equations used are the standard statistical mechanics
      equations for an ideal gas
  (5) All vibrations are strictly harmonic

freq.     618.81  E(vib)   ...       0.09
freq.     631.68  E(vib)   ...       0.09
freq.     745.46  E(vib)   ...       0.06
freq.     765.18  E(vib)   ...       0.06
freq.     854.80  E(vib)   ...       0.04
freq.     880.47  E(vib)   ...       0.04
freq.     890.44  E(vib)   ...       0.04
freq.     893.62  E(vib)   ...       0.03
freq.    1025.42  E(vib)   ...       0.02
freq.    1072.19  E(vib)   ...       0.02
freq.    1112.17  E(vib)   ...       0.01
freq.    1176.64  E(vib)   ...       0.01
freq.    1234.27  E(vib)   ...       0.01
freq.    1289.88  E(vib)   ...       0.01
freq.    1432.51  E(vib)   ...       0.00
freq.    1533.31  E(vib)   ...       0.00
freq.    1612.87  E(vib)   ...       0.00
freq.    3264.41  E(vib)   ...       0.00
freq.    3274.78  E(vib)   ...       0.00
freq.    3293.23  E(vib)   ...       0.00
freq.    3300.51  E(vib)   ...       0.00

------------
INNER ENERGY
------------

The inner energy is: U= E(el) + E(ZPE) + E(vib) + E(rot) + E(trans)
    E(el)   - is the total energy from the electronic structure calculation
              = E(kin-el) + E(nuc-el) + E(el-el) + E(nuc-nuc)
    E(ZPE)  - the the zero temperature vibrational energy from the frequency calculation
    E(vib)  - the the finite temperature correction to E(ZPE) due to population
              of excited vibrational states
    E(rot)  - is the rotational thermal energy
    E(trans)- is the translational thermal energy

Summary of contributions to the inner energy U:
Electronic energy                ...   -229.84589667 Eh
Zero point energy                ...      0.07040139 Eh      44.18 kcal/mol
Thermal vibrational correction   ...      0.00085493 Eh       0.54 kcal/mol
Thermal rotational correction    ...      0.00141627 Eh       0.89 kcal/mol
Thermal translational correction ...      0.00141627 Eh       0.89 kcal/mol
-----------------------------------------------------------------------
Total thermal energy                   -229.77180780 Eh

Summary of corrections to the electronic energy:
(perhaps to be used in another calculation)
Total thermal correction                  0.00368748 Eh       2.31 kcal/mol
Non-thermal (ZPE) correction              0.07040139 Eh      44.18 kcal/mol
-----------------------------------------------------------------------
Total correction                          0.07408887 Eh      46.49 kcal/mol

--------
ENTHALPY
--------

The enthalpy is H = U + kB*T
                kB is Boltzmann's constant
Total free energy                 ...   -229.77180780 Eh
Thermal Enthalpy correction       ...      0.00094421 Eh       0.59 kcal/mol
-----------------------------------------------------------------------
Total Enthalpy                    ...   -229.77086359 Eh

Note: Rotational entropy computed according to Herzberg
Infrared and Raman Spectra, Chapter V,1, Van Nostrand Reinhold, 1945
Point Group:  Cs, Symmetry Number:   1
Rotational constants in cm-1:     0.319544     0.312682     0.158038

Vibrational entropy computed according to the QRRHO of S. Grimme
Chem.Eur.J. 2012 18 9955

-------
ENTROPY
-------

The entropy contributions are T*S = T*(S(el)+S(vib)+S(rot)+S(trans))
     S(el)   - electronic entropy
     S(vib)  - vibrational entropy
     S(rot)  - rotational entropy
     S(trans)- translational entropy
The entropies will be listed as multiplied by the temperature to get
units of energy

Electronic entropy                ...      0.00000000 Eh      0.00 kcal/mol
Vibrational entropy               ...      0.00108119 Eh      0.68 kcal/mol
Rotational entropy                ...      0.01146921 Eh      7.20 kcal/mol
Translational entropy             ...      0.01832660 Eh     11.50 kcal/mol
-----------------------------------------------------------------------
Final entropy term                ...      0.03087700 Eh     19.38 kcal/mol

In case the symmetry of your molecule has not been determined correctly
or in case you have a reason to use a different symmetry number we print
out the resulting rotational entropy values for sn=1,12 :
 --------------------------------------------------------
|  sn= 1 | S(rot)=       0.01146921 Eh      7.20 kcal/mol|
|  sn= 2 | S(rot)=       0.01081475 Eh      6.79 kcal/mol|
|  sn= 3 | S(rot)=       0.01043192 Eh      6.55 kcal/mol|
|  sn= 4 | S(rot)=       0.01016029 Eh      6.38 kcal/mol|
|  sn= 5 | S(rot)=       0.00994961 Eh      6.24 kcal/mol|
|  sn= 6 | S(rot)=       0.00977746 Eh      6.14 kcal/mol|
|  sn= 7 | S(rot)=       0.00963192 Eh      6.04 kcal/mol|
|  sn= 8 | S(rot)=       0.00950584 Eh      5.96 kcal/mol|
|  sn= 9 | S(rot)=       0.00939463 Eh      5.90 kcal/mol|
|  sn=10 | S(rot)=       0.00929515 Eh      5.83 kcal/mol|
|  sn=11 | S(rot)=       0.00920516 Eh      5.78 kcal/mol|
|  sn=12 | S(rot)=       0.00912300 Eh      5.72 kcal/mol|
 --------------------------------------------------------

-------------------
GIBBS FREE ENERGY
-------------------

The Gibbs free energy is G = H - T*S

Total enthalpy                    ...   -229.77086359 Eh
Total entropy correction          ...     -0.03087700 Eh    -19.38 kcal/mol
-----------------------------------------------------------------------
Final Gibbs free energy         ...   -229.80174059 Eh

For completeness - the Gibbs free energy minus the electronic energy
G-E(el)                           ...      0.04415608 Eh     27.71 kcal/mol

                             ****ORCA TERMINATED NORMALLY****
TOTAL RUN TIME: 0 days 0 hours 2 minutes 26 seconds 39 msec
