                         Program Version 5.0.1 -  RELEASE  -
|  1>
|  2> %pal
|  3>   nprocs 6
|  4> end
|  5> %maxcore 2000
|  6>
|  7> ! PBE aug-cc-pVTZ VeryTightSCF
|  8> ! RIJCOSX def2/J
|  9>
| 10> * xyzfile 0 1 furan.xyz
| 11>
| 12>
| 13>                          ****END OF INPUT****

CARTESIAN COORDINATES (ANGSTROEM)
---------------------------------
  C     -0.396763    1.309389   -0.000001
  O      0.016195    0.023197   -0.000000
  C      1.367142    0.042429    0.000001
  C      0.664447    2.148923    0.000002
  C      1.823692    1.316209   -0.000002
  H     -1.462896    1.463599   -0.000003
  H      1.854233   -0.918434    0.000003
  H      0.628890    3.226440    0.000004
  H      2.856160    1.626788   -0.000004

 Total Charge           Charge          ....    0
 Multiplicity           Mult            ....    1
 Number of Electrons    NEL             ....   36
 Basis Dimension        Dim             ....  322

ORBITAL ENERGIES
----------------

  NO   OCC          E(Eh)            E(eV)
   0   2.0000     -18.826790      -512.3030
   1   2.0000      -9.931956      -270.2623
   2   2.0000      -9.931932      -270.2616
   3   2.0000      -9.886962      -269.0379
   4   2.0000      -9.886628      -269.0288
   5   2.0000      -1.033284       -28.1171
   6   2.0000      -0.730940       -19.8899
   7   2.0000      -0.682382       -18.5686
   8   2.0000      -0.546800       -14.8792
   9   2.0000      -0.513843       -13.9824
  10   2.0000      -0.492078       -13.3901
  11   2.0000      -0.410042       -11.1578
  12   2.0000      -0.400880       -10.9085
  13   2.0000      -0.364500        -9.9186
  14   2.0000      -0.355339        -9.6693
  15   2.0000      -0.328663        -8.9434
  16   2.0000      -0.253657        -6.9023
  17   2.0000      -0.208786        -5.6814
  18   0.0000      -0.029070        -0.7910
  19   0.0000      -0.011892        -0.3236
  20   0.0000       0.004829         0.1314
  21   0.0000       0.009582         0.2607
  22   0.0000       0.020505         0.5580

MULLIKEN ATOMIC CHARGES
-----------------------
   0 C :   -0.395436
   1 O :   -0.212644
   2 C :   -0.395901
   3 C :   -0.482493
   4 C :   -0.481623
   5 H :    0.603714
   6 H :    0.603747
   7 H :    0.380493
   8 H :    0.380142
Sum of atomic charges:    0.0000000

LOEWDIN ATOMIC CHARGES
----------------------
   0 C :   -0.060902
   1 O :    0.594774
   2 C :   -0.060646
   3 C :    0.149709
   4 C :    0.149585
   5 H :   -0.195510
   6 H :   -0.195481
   7 H :   -0.190796
   8 H :   -0.190732

  Mayer bond orders larger than 0.100000
B(  0-C ,  1-O ) :   1.0421 B(  0-C ,  2-C ) :   0.1516 B(  0-C ,  3-C ) :   1.3561
B(  0-C ,  5-H ) :   0.5381 B(  1-O ,  2-C ) :   1.0416 B(  2-C ,  4-C ) :   1.3564
B(  2-C ,  6-H ) :   0.5380 B(  3-C ,  4-C ) :   1.1532 B(  3-C ,  7-H ) :   0.8734
B(  4-C ,  8-H ) :   0.8738

FINAL SINGLE POINT ENERGY      -229.831026824223

DIPOLE MOMENT
-------------
                                X             Y             Z
Electronic contribution:     -0.98564      -1.37193      -0.00000
Nuclear contribution   :      1.10741       1.54133       0.00000
                        -----------------------------------------
Total Dipole Moment    :      0.12177       0.16940      -0.00000
                        -----------------------------------------
Magnitude (a.u.)       :      0.20862
Magnitude (Debye)      :      0.53027

Rotational constants in cm-1:     0.319544     0.312682     0.158038
Rotational constants in MHz :  9579.689039  9373.969929  4737.856534

                             ****ORCA TERMINATED NORMALLY****
TOTAL RUN TIME: 0 days 0 hours 0 minutes 7 seconds 144 msec
