                         Program Version 5.0.1 -  RELEASE  -
|  1>
|  2> %pal
|  3>   nprocs 6
|  4> end
|  5> %maxcore 2000
|  6>
|  7> ! PBE aug-cc-pVTZ VeryTightSCF
|  8> ! RIJCOSX def2/J
|  9>
| 10> * xyzfile 0 1 methanol.xyz
| 11>
| 12>
| 13>                          ****END OF INPUT****

CARTESIAN COORDINATES (ANGSTROEM)
---------------------------------
  O      1.428104   -0.010026    0.000000
  C      0.013173    0.020514    0.000000
  H      1.737386    0.895544   -0.000000
  H     -0.328469   -1.014055    0.000000
  H     -0.386767    0.515986    0.893450
  H     -0.386767    0.515986   -0.893450

 Total Charge           Charge          ....    0
 Multiplicity           Mult            ....    1
 Number of Electrons    NEL             ....   18
 Basis Dimension        Dim             ....  184

ORBITAL ENERGIES
----------------

  NO   OCC          E(Eh)            E(eV)
   0   2.0000     -18.757276      -510.4114
   1   2.0000      -9.923724      -270.0383
   2   2.0000      -0.939752       -25.5720
   3   2.0000      -0.619723       -16.8635
   4   2.0000      -0.461560       -12.5597
   5   2.0000      -0.392196       -10.6722
   6   2.0000      -0.381933       -10.3929
   7   2.0000      -0.294864        -8.0237
   8   2.0000      -0.231593        -6.3020
   9   0.0000      -0.023833        -0.6485
  10   0.0000      -0.000732        -0.0199
  11   0.0000       0.018851         0.5130
  12   0.0000       0.022901         0.6232
  13   0.0000       0.052881         1.4390

MULLIKEN ATOMIC CHARGES
-----------------------
   0 O :   -0.370971
   1 C :   -0.459913
   2 H :    0.130296
   3 H :    0.266485
   4 H :    0.217052
   5 H :    0.217052
Sum of atomic charges:    0.0000000

LOEWDIN ATOMIC CHARGES
----------------------
   0 O :    0.810879
   1 C :    0.291272
   2 H :   -0.519451
   3 H :   -0.200443
   4 H :   -0.191129
   5 H :   -0.191129

  Mayer bond orders larger than 0.100000
B(  0-O ,  1-C ) :   0.8660 B(  0-O ,  2-H ) :   1.0291 B(  1-C ,  3-H ) :   0.9127
B(  1-C ,  4-H ) :   0.9296 B(  1-C ,  5-H ) :   0.9296

FINAL SINGLE POINT ENERGY      -115.630486757521

DIPOLE MOMENT
-------------
                                X             Y             Z
Electronic contribution:      1.83074      -0.21597      -0.00000
Nuclear contribution   :     -2.16318       0.73846      -0.00000
                        -----------------------------------------
Total Dipole Moment    :     -0.33244       0.52249      -0.00000
                        -----------------------------------------
Magnitude (a.u.)       :      0.61929
Magnitude (Debye)      :      1.57410

Rotational constants in cm-1:     4.269304     0.832063     0.803124
Rotational constants in MHz : 127990.526170 24944.610973 24077.065620

                             ****ORCA TERMINATED NORMALLY****
TOTAL RUN TIME: 0 days 0 hours 0 minutes 59 seconds 592 msec
