                         Program Version 5.0.1 -  RELEASE  -
|  1>
|  2> %pal
|  3>   nprocs 6
|  4> end
|  5> %maxcore 2000
|  6>
|  7> ! DLPNO-CCSD aug-cc-pVTZ VeryTightSCF
|  8> ! RIJCOSX def2/J aug-cc-pVTZ/C
|  9> ! TightPNO
| 10>
| 11> %mdci
| 12>   density unrelaxed
| 13> end
| 14>
| 15> * xyzfile 0 1 phosphine.xyz
| 16>
| 17>
| 18>                          ****END OF INPUT****

CARTESIAN COORDINATES (ANGSTROEM)
---------------------------------
  P     -0.092768   -0.131096    0.227150
  H     -0.395501    1.225554   -0.061679
  H     -0.395627   -0.559549   -1.091980
  H      1.287226    0.035481   -0.061462

 Total Charge           Charge          ....    0
 Multiplicity           Mult            ....    1
 Number of Electrons    NEL             ....   18
 Basis Dimension        Dim             ....  119

ORBITAL ENERGIES
----------------

  NO   OCC          E(Eh)            E(eV)
   0   2.0000     -79.946906     -2175.4659
   1   2.0000      -7.489293      -203.7940
   2   2.0000      -5.383578      -146.4946
   3   2.0000      -5.381890      -146.4487
   4   2.0000      -5.381860      -146.4479
   5   2.0000      -0.855033       -23.2666
   6   2.0000      -0.520070       -14.1518
   7   2.0000      -0.520036       -14.1509
   8   2.0000      -0.389191       -10.5904
   9   0.0000       0.029022         0.7897
  10   0.0000       0.053583         1.4581
  11   0.0000       0.053584         1.4581
  12   0.0000       0.081346         2.2135
  13   0.0000       0.090149         2.4531

E(0)                                       ...   -342.487867929
E(0)                                       ...   -342.487867929
E(CORR)(strong-pairs)                      ...     -0.201650737
E(CORR)(weak-pairs)                        ...     -0.000033196
E(CORR)(corrected)                         ...     -0.201683933
E(TOT)                                     ...   -342.689551862

MULLIKEN ATOMIC CHARGES
-----------------------
   0 P :   -0.295928
   1 H :    0.098546
   2 H :    0.098533
   3 H :    0.098849
Sum of atomic charges:    0.0000000

LOEWDIN ATOMIC CHARGES
----------------------
   0 P :    1.308569
   1 H :   -0.436130
   2 H :   -0.436219
   3 H :   -0.436220

  Mayer bond orders larger than 0.100000
B(  0-P ,  1-H ) :   0.9111 B(  0-P ,  2-H ) :   0.9116 B(  0-P ,  3-H ) :   0.9112

FINAL SINGLE POINT ENERGY      -342.689551862486

DIPOLE MOMENT
-------------
                                X             Y             Z
Electronic contribution:     -0.60162      -0.85053       1.47341
Nuclear contribution   :      0.68242       0.96474      -1.67130
                        -----------------------------------------
Total Dipole Moment    :      0.08080       0.11421      -0.19788
                        -----------------------------------------
Magnitude (a.u.)       :      0.24234
Magnitude (Debye)      :      0.61599

Rotational constants in cm-1:     4.445043     4.444854     3.936882
Rotational constants in MHz : 133259.033668 133253.369889 118024.763384

                             ****ORCA TERMINATED NORMALLY****
TOTAL RUN TIME: 0 days 0 hours 0 minutes 43 seconds 352 msec
