                         Program Version 5.0.1 -  RELEASE  -
|  1>
|  2> %pal
|  3>   nprocs 6
|  4> end
|  5> %maxcore 2000
|  6>
|  7> ! PBE0 def2-TZVP TightOPT Freq
|  8> ! RIJCOSX def2/J
|  9>
| 10> * xyzfile 0 1 ammonia.xyz
| 11>
| 12>
| 13>                          ****END OF INPUT****
 Total Charge           Charge          ....    0
 Multiplicity           Mult            ....    1
 Number of Electrons    NEL             ....   10
FINAL SINGLE POINT ENERGY       -56.513013961152
FINAL SINGLE POINT ENERGY       -56.513208381574
FINAL SINGLE POINT ENERGY       -56.513215434402
FINAL SINGLE POINT ENERGY       -56.513219364075
FINAL SINGLE POINT ENERGY       -56.513219603432
                    ***********************HURRAY********************

CARTESIAN COORDINATES (ANGSTROEM)
---------------------------------
  N     -0.008597   -0.012177    0.021074
  H     -0.326859   -0.462229   -0.828075
  H     -0.326855    0.948260   -0.013741
  H      1.002981    0.007926   -0.013728

 Multiplicity           Mult            ....    1
 Number of Electrons    NEL             ....   10
 Basis Dimension        Dim             ....   49

ORBITAL ENERGIES
----------------

  NO   OCC          E(Eh)            E(eV)
   0   2.0000     -14.354363      -390.6021
   1   2.0000      -0.874371       -23.7928
   2   2.0000      -0.473885       -12.8951
   3   2.0000      -0.473878       -12.8949
   4   2.0000      -0.278144        -7.5687
   5   0.0000       0.039214         1.0671
   6   0.0000       0.121874         3.3164
   7   0.0000       0.121878         3.3165
   8   0.0000       0.311892         8.4870
   9   0.0000       0.311897         8.4871

MULLIKEN ATOMIC CHARGES
-----------------------
   0 N :   -0.700953
   1 H :    0.233663
   2 H :    0.233674
   3 H :    0.233616
Sum of atomic charges:   -0.0000000

LOEWDIN ATOMIC CHARGES
----------------------
   0 N :   -0.395991
   1 H :    0.131994
   2 H :    0.132007
   3 H :    0.131990

  Mayer bond orders larger than 0.100000
B(  0-N ,  1-H ) :   0.9439 B(  0-N ,  2-H ) :   0.9439 B(  0-N ,  3-H ) :   0.9439

FINAL SINGLE POINT ENERGY       -56.513219608689

DIPOLE MOMENT
-------------
                                X             Y             Z
Electronic contribution:     -0.06746      -0.09541       0.16525
Nuclear contribution   :      0.28927       0.40915      -0.70862
                        -----------------------------------------
Total Dipole Moment    :      0.22181       0.31374      -0.54337
                        -----------------------------------------
Magnitude (a.u.)       :      0.66549
Magnitude (Debye)      :      1.69155

VIBRATIONAL FREQUENCIES
-----------------------

Scaling factor for frequencies =  1.000000000  (already applied!)

   0:         0.00 cm**-1
   1:         0.00 cm**-1
   2:         0.00 cm**-1
   3:         0.00 cm**-1
   4:         0.00 cm**-1
   5:         0.00 cm**-1
   6:      1030.50 cm**-1
   7:      1669.42 cm**-1
   8:      1669.49 cm**-1
   9:      3502.56 cm**-1
  10:      3631.17 cm**-1
  11:      3631.37 cm**-1

IR SPECTRUM
-----------

 Mode   freq       eps      Int      T**2         TX        TY        TZ
       cm**-1   L/(mol*cm) km/mol    a.u.
----------------------------------------------------------------------------
  6:   1030.50   0.035535  179.58  0.010761  ( 0.034598  0.048899 -0.084694)
  7:   1669.42   0.004448   22.48  0.000831  ( 0.007278 -0.025338 -0.011682)
  8:   1669.49   0.004441   22.44  0.000830  (-0.026166 -0.002042 -0.011888)
  9:   3502.56   0.000113    0.57  0.000010  (-0.001049 -0.001489  0.002602)
 10:   3631.17   0.000536    2.71  0.000046  (-0.003727  0.005439  0.001613)
 11:   3631.37   0.000535    2.70  0.000046  (-0.005204 -0.002477 -0.003575)

--------------------------
THERMOCHEMISTRY AT 298.15K
--------------------------

Temperature         ... 298.15 K
Pressure            ... 1.00 atm
Total Mass          ... 17.03 AMU

Throughout the following assumptions are being made:
  (1) The electronic state is orbitally nondegenerate
  (2) There are no thermally accessible electronically excited states
  (3) Hindered rotations indicated by low frequency modes are not
      treated as such but are treated as vibrations and this may
      cause some error
  (4) All equations used are the standard statistical mechanics
      equations for an ideal gas
  (5) All vibrations are strictly harmonic

freq.    1030.50  E(vib)   ...       0.02
freq.    1669.42  E(vib)   ...       0.00
freq.    1669.49  E(vib)   ...       0.00
freq.    3502.56  E(vib)   ...       0.00
freq.    3631.17  E(vib)   ...       0.00
freq.    3631.37  E(vib)   ...       0.00

------------
INNER ENERGY
------------

The inner energy is: U= E(el) + E(ZPE) + E(vib) + E(rot) + E(trans)
    E(el)   - is the total energy from the electronic structure calculation
              = E(kin-el) + E(nuc-el) + E(el-el) + E(nuc-nuc)
    E(ZPE)  - the the zero temperature vibrational energy from the frequency calculation
    E(vib)  - the the finite temperature correction to E(ZPE) due to population
              of excited vibrational states
    E(rot)  - is the rotational thermal energy
    E(trans)- is the translational thermal energy

Summary of contributions to the inner energy U:
Electronic energy                ...    -56.51321961 Eh
Zero point energy                ...      0.03447896 Eh      21.64 kcal/mol
Thermal vibrational correction   ...      0.00003757 Eh       0.02 kcal/mol
Thermal rotational correction    ...      0.00141627 Eh       0.89 kcal/mol
Thermal translational correction ...      0.00141627 Eh       0.89 kcal/mol
-----------------------------------------------------------------------
Total thermal energy                    -56.47587054 Eh

Summary of corrections to the electronic energy:
(perhaps to be used in another calculation)
Total thermal correction                  0.00287011 Eh       1.80 kcal/mol
Non-thermal (ZPE) correction              0.03447896 Eh      21.64 kcal/mol
-----------------------------------------------------------------------
Total correction                          0.03734907 Eh      23.44 kcal/mol

--------
ENTHALPY
--------

The enthalpy is H = U + kB*T
                kB is Boltzmann's constant
Total free energy                 ...    -56.47587054 Eh
Thermal Enthalpy correction       ...      0.00094421 Eh       0.59 kcal/mol
-----------------------------------------------------------------------
Total Enthalpy                    ...    -56.47492633 Eh

Note: Rotational entropy computed according to Herzberg
Infrared and Raman Spectra, Chapter V,1, Van Nostrand Reinhold, 1945
Point Group:  C3v, Symmetry Number:   3
Rotational constants in cm-1:     9.993697     9.993429     6.304550

Vibrational entropy computed according to the QRRHO of S. Grimme
Chem.Eur.J. 2012 18 9955

-------
ENTROPY
-------

The entropy contributions are T*S = T*(S(el)+S(vib)+S(rot)+S(trans))
     S(el)   - electronic entropy
     S(vib)  - vibrational entropy
     S(rot)  - rotational entropy
     S(trans)- translational entropy
The entropies will be listed as multiplied by the temperature to get
units of energy

Electronic entropy                ...      0.00000000 Eh      0.00 kcal/mol
Vibrational entropy               ...      0.00004474 Eh      0.03 kcal/mol
Rotational entropy                ...      0.00543083 Eh      3.41 kcal/mol
Translational entropy             ...      0.01636425 Eh     10.27 kcal/mol
-----------------------------------------------------------------------
Final entropy term                ...      0.02183982 Eh     13.70 kcal/mol

In case the symmetry of your molecule has not been determined correctly
or in case you have a reason to use a different symmetry number we print
out the resulting rotational entropy values for sn=1,12 :
 --------------------------------------------------------
|  sn= 1 | S(rot)=       0.00646811 Eh      4.06 kcal/mol|
|  sn= 2 | S(rot)=       0.00581366 Eh      3.65 kcal/mol|
|  sn= 3 | S(rot)=       0.00543083 Eh      3.41 kcal/mol|
|  sn= 4 | S(rot)=       0.00515920 Eh      3.24 kcal/mol|
|  sn= 5 | S(rot)=       0.00494851 Eh      3.11 kcal/mol|
|  sn= 6 | S(rot)=       0.00477637 Eh      3.00 kcal/mol|
|  sn= 7 | S(rot)=       0.00463082 Eh      2.91 kcal/mol|
|  sn= 8 | S(rot)=       0.00450475 Eh      2.83 kcal/mol|
|  sn= 9 | S(rot)=       0.00439354 Eh      2.76 kcal/mol|
|  sn=10 | S(rot)=       0.00429406 Eh      2.69 kcal/mol|
|  sn=11 | S(rot)=       0.00420407 Eh      2.64 kcal/mol|
|  sn=12 | S(rot)=       0.00412191 Eh      2.59 kcal/mol|
 --------------------------------------------------------

-------------------
GIBBS FREE ENERGY
-------------------

The Gibbs free energy is G = H - T*S

Total enthalpy                    ...    -56.47492633 Eh
Total entropy correction          ...     -0.02183982 Eh    -13.70 kcal/mol
-----------------------------------------------------------------------
Final Gibbs free energy         ...    -56.49676615 Eh

For completeness - the Gibbs free energy minus the electronic energy
G-E(el)                           ...      0.01645346 Eh     10.32 kcal/mol

                             ****ORCA TERMINATED NORMALLY****
TOTAL RUN TIME: 0 days 0 hours 0 minutes 11 seconds 981 msec
