                         Program Version 5.0.1 -  RELEASE  -
|  1>
|  2> %pal
|  3>   nprocs 6
|  4> end
|  5> %maxcore 2000
|  6>
|  7> ! PBE aug-cc-pVTZ VeryTightSCF
|  8> ! RIJCOSX def2/J
|  9>
| 10> * xyzfile 0 1 acetone.xyz
| 11>
| 12>
| 13>                          ****END OF INPUT****

CARTESIAN COORDINATES (ANGSTROEM)
---------------------------------
  C      0.106474   -1.346767    0.711222
  C      0.095987   -0.265756   -0.337712
  C      1.322464   -0.164144   -1.207052
  O     -0.847125    0.472222   -0.479154
  H     -0.825316   -1.329454    1.273255
  H      0.237056   -2.325803    0.241198
  H      0.952178   -1.208267    1.390518
  H      1.429999   -1.076538   -1.801306
  H      2.224161   -0.079433   -0.594775
  H      1.240061    0.694030   -1.871333

 Total Charge           Charge          ....    0
 Multiplicity           Mult            ....    1
 Number of Electrons    NEL             ....   32
 Basis Dimension        Dim             ....  322

ORBITAL ENERGIES
----------------

  NO   OCC          E(Eh)            E(eV)
   0   2.0000     -18.743403      -510.0339
   1   2.0000      -9.973397      -271.3899
   2   2.0000      -9.890713      -269.1400
   3   2.0000      -9.890604      -269.1370
   4   2.0000      -0.960680       -26.1414
   5   2.0000      -0.704682       -19.1754
   6   2.0000      -0.648139       -17.6368
   7   2.0000      -0.480638       -13.0788
   8   2.0000      -0.420402       -11.4397
   9   2.0000      -0.416454       -11.3323
  10   2.0000      -0.405443       -11.0327
  11   2.0000      -0.362752        -9.8710
  12   2.0000      -0.352583        -9.5943
  13   2.0000      -0.338431        -9.2092
  14   2.0000      -0.318291        -8.6611
  15   2.0000      -0.207898        -5.6572
  16   0.0000      -0.058910        -1.6030
  17   0.0000      -0.025394        -0.6910
  18   0.0000       0.003595         0.0978
  19   0.0000       0.012062         0.3282
  20   0.0000       0.018506         0.5036

MULLIKEN ATOMIC CHARGES
-----------------------
   0 C :   -0.602363
   1 C :    0.521208
   2 C :   -0.602728
   3 O :   -0.596620
   4 H :    0.200841
   5 H :    0.220125
   6 H :    0.219228
   7 H :    0.216979
   8 H :    0.223228
   9 H :    0.200101
Sum of atomic charges:   -0.0000000

LOEWDIN ATOMIC CHARGES
----------------------
   0 C :    0.560799
   1 C :   -0.577942
   2 C :    0.561267
   3 O :    0.509793
   4 H :   -0.182786
   5 H :   -0.171501
   6 H :   -0.172645
   7 H :   -0.170917
   8 H :   -0.173594
   9 H :   -0.182476

  Mayer bond orders larger than 0.100000
B(  0-C ,  1-C ) :   0.9174 B(  0-C ,  2-C ) :   0.1038 B(  0-C ,  4-H ) :   0.9531
B(  0-C ,  5-H ) :   0.9356 B(  0-C ,  6-H ) :   0.9360 B(  1-C ,  2-C ) :   0.9148
B(  1-C ,  3-O ) :   1.3708 B(  2-C ,  7-H ) :   0.9338 B(  2-C ,  8-H ) :   0.9373
B(  2-C ,  9-H ) :   0.9533

FINAL SINGLE POINT ENERGY      -192.985052107586

DIPOLE MOMENT
-------------
                                X             Y             Z
Electronic contribution:     -3.04063       2.41356      -0.43649
Nuclear contribution   :      3.94268      -3.12812       0.56596
                        -----------------------------------------
Total Dipole Moment    :      0.90206      -0.71456       0.12947
                        -----------------------------------------
Magnitude (a.u.)       :      1.15804
Magnitude (Debye)      :      2.94351

Rotational constants in cm-1:     0.341435     0.287079     0.165459
Rotational constants in MHz : 10235.958159  8606.416007  4960.349413

                             ****ORCA TERMINATED NORMALLY****
TOTAL RUN TIME: 0 days 0 hours 0 minutes 7 seconds 528 msec
