                         Program Version 5.0.1 -  RELEASE  -
|  1>
|  2> %pal
|  3>   nprocs 6
|  4> end
|  5> %maxcore 2000
|  6>
|  7> ! B3LYP aug-cc-pVTZ VeryTightSCF
|  8> ! RIJCOSX def2/J
|  9>
| 10> * xyzfile 0 1 ammonia.xyz
| 11>
| 12>
| 13>                          ****END OF INPUT****

CARTESIAN COORDINATES (ANGSTROEM)
---------------------------------
  N     -0.008597   -0.012177    0.021074
  H     -0.326859   -0.462229   -0.828075
  H     -0.326855    0.948260   -0.013741
  H      1.002981    0.007926   -0.013728

 Total Charge           Charge          ....    0
 Multiplicity           Mult            ....    1
 Number of Electrons    NEL             ....   10
 Basis Dimension        Dim             ....  115

ORBITAL ENERGIES
----------------

  NO   OCC          E(Eh)            E(eV)
   0   2.0000     -14.296672      -389.0322
   1   2.0000      -0.854393       -23.2492
   2   2.0000      -0.464259       -12.6331
   3   2.0000      -0.464248       -12.6328
   4   2.0000      -0.271377        -7.3845
   5   0.0000      -0.015750        -0.4286
   6   0.0000       0.025166         0.6848
   7   0.0000       0.025166         0.6848
   8   0.0000       0.070384         1.9152
   9   0.0000       0.090777         2.4702

MULLIKEN ATOMIC CHARGES
-----------------------
   0 N :   -0.450672
   1 H :    0.150559
   2 H :    0.150259
   3 H :    0.149854
Sum of atomic charges:   -0.0000000

LOEWDIN ATOMIC CHARGES
----------------------
   0 N :    1.082922
   1 H :   -0.360992
   2 H :   -0.360960
   3 H :   -0.360970

  Mayer bond orders larger than 0.100000
B(  0-N ,  1-H ) :   0.9885 B(  0-N ,  2-H ) :   0.9889 B(  0-N ,  3-H ) :   0.9894

FINAL SINGLE POINT ENERGY       -56.552555589133

DIPOLE MOMENT
-------------
                                X             Y             Z
Electronic contribution:     -0.09318      -0.13186       0.22835
Nuclear contribution   :      0.28927       0.40915      -0.70862
                        -----------------------------------------
Total Dipole Moment    :      0.19609       0.27729      -0.48026
                        -----------------------------------------
Magnitude (a.u.)       :      0.58821
Magnitude (Debye)      :      1.49512

Rotational constants in cm-1:     9.993697     9.993429     6.304550
Rotational constants in MHz : 299603.509327 299595.452230 189005.660235

                             ****ORCA TERMINATED NORMALLY****
TOTAL RUN TIME: 0 days 0 hours 0 minutes 3 seconds 27 msec
