                         Program Version 5.0.1 -  RELEASE  -
|  1>
|  2> %pal
|  3>   nprocs 6
|  4> end
|  5> %maxcore 2000
|  6>
|  7> ! PBE0 def2-TZVP TightOPT Freq
|  8> ! RIJCOSX def2/J
|  9>
| 10> * xyzfile 0 2 nitrogen_monoxide.xyz
| 11>
| 12>
| 13>                          ****END OF INPUT****
 Total Charge           Charge          ....    0
 Multiplicity           Mult            ....    2
 Number of Electrons    NEL             ....   15
FINAL SINGLE POINT ENERGY      -129.806700647223
                    ***********************HURRAY********************

CARTESIAN COORDINATES (ANGSTROEM)
---------------------------------
  N    -27.883207   12.166670    0.000000
  O    -26.743453   12.166670    0.000000

 Multiplicity           Mult            ....    2
 Number of Electrons    NEL             ....   15
 Basis Dimension        Dim             ....   62

ORBITAL ENERGIES
----------------
                 SPIN UP ORBITALS
  NO   OCC          E(Eh)            E(eV)
   0   1.0000     -19.345353      -526.4138
   1   1.0000     -14.519799      -395.1038
   2   1.0000      -1.288238       -35.0547
   3   1.0000      -0.712787       -19.3959
   4   1.0000      -0.564376       -15.3574
   5   1.0000      -0.532427       -14.4881
   6   1.0000      -0.505407       -13.7528
   7   1.0000      -0.229863        -6.2549
   8   0.0000      -0.095777        -2.6062
   9   0.0000       0.194610         5.2956
  10   0.0000       0.264921         7.2089
  11   0.0000       0.315293         8.5796
  12   0.0000       0.320415         8.7189

                 SPIN DOWN ORBITALS
  NO   OCC          E(Eh)            E(eV)
   0   1.0000     -19.334505      -526.1186
   1   1.0000     -14.503267      -394.6539
   2   1.0000      -1.266375       -34.4598
   3   1.0000      -0.673636       -18.3306
   4   1.0000      -0.523078       -14.2337
   5   1.0000      -0.484318       -13.1790
   6   1.0000      -0.479645       -13.0518
   7   0.0000      -0.079784        -2.1710
   8   0.0000      -0.034660        -0.9431
   9   0.0000       0.201113         5.4726
  10   0.0000       0.279274         7.5994
  11   0.0000       0.326062         8.8726

MULLIKEN ATOMIC CHARGES AND SPIN POPULATIONS
--------------------------------------------
   0 N :    0.064056    0.699864
   1 O :   -0.064056    0.300136
Sum of atomic charges         :   -0.0000000

LOEWDIN ATOMIC CHARGES AND SPIN POPULATIONS
-------------------------------------------
   0 N :   -0.105031    0.668296
   1 O :    0.105031    0.331704

  Mayer bond orders larger than 0.100000
B(  0-N ,  1-O ) :   2.1264

FINAL SINGLE POINT ENERGY      -129.806700652921

DIPOLE MOMENT
-------------
                                X             Y             Z
Electronic contribution:      0.05061      -0.00000      -0.00000
Nuclear contribution   :      0.00452       0.00000       0.00000
                        -----------------------------------------
Total Dipole Moment    :      0.05513      -0.00000      -0.00000
                        -----------------------------------------
Magnitude (a.u.)       :      0.05513
Magnitude (Debye)      :      0.14014

VIBRATIONAL FREQUENCIES
-----------------------

Scaling factor for frequencies =  1.000000000  (already applied!)

   0:         0.00 cm**-1
   1:         0.00 cm**-1
   2:         0.00 cm**-1
   3:         0.00 cm**-1
   4:         0.00 cm**-1
   5:      2030.47 cm**-1

IR SPECTRUM
-----------

 Mode   freq       eps      Int      T**2         TX        TY        TZ
       cm**-1   L/(mol*cm) km/mol    a.u.
----------------------------------------------------------------------------
  5:   2030.47   0.008324   42.07  0.001279  ( 0.035767  0.000000  0.000000)

--------------------------
THERMOCHEMISTRY AT 298.15K
--------------------------

Temperature         ... 298.15 K
Pressure            ... 1.00 atm
Total Mass          ... 30.01 AMU
The molecule is recognized as being linear

Throughout the following assumptions are being made:
  (1) The electronic state is orbitally nondegenerate
      but the spin degeneracy is treated
  (2) There are no thermally accessible electronically excited states
  (3) Hindered rotations indicated by low frequency modes are not
      treated as such but are treated as vibrations and this may
      cause some error
  (4) All equations used are the standard statistical mechanics
      equations for an ideal gas
  (5) All vibrations are strictly harmonic

freq.    2030.47  E(vib)   ...       0.00

------------
INNER ENERGY
------------

The inner energy is: U= E(el) + E(ZPE) + E(vib) + E(rot) + E(trans)
    E(el)   - is the total energy from the electronic structure calculation
              = E(kin-el) + E(nuc-el) + E(el-el) + E(nuc-nuc)
    E(ZPE)  - the the zero temperature vibrational energy from the frequency calculation
    E(vib)  - the the finite temperature correction to E(ZPE) due to population
              of excited vibrational states
    E(rot)  - is the rotational thermal energy
    E(trans)- is the translational thermal energy

Summary of contributions to the inner energy U:
Electronic energy                ...   -129.80670065 Eh
Zero point energy                ...      0.00462574 Eh       2.90 kcal/mol
Thermal vibrational correction   ...      0.00000051 Eh       0.00 kcal/mol
Thermal rotational correction    ...      0.00094418 Eh       0.59 kcal/mol
Thermal translational correction ...      0.00141627 Eh       0.89 kcal/mol
-----------------------------------------------------------------------
Total thermal energy                   -129.79971394 Eh

Summary of corrections to the electronic energy:
(perhaps to be used in another calculation)
Total thermal correction                  0.00236097 Eh       1.48 kcal/mol
Non-thermal (ZPE) correction              0.00462574 Eh       2.90 kcal/mol
-----------------------------------------------------------------------
Total correction                          0.00698671 Eh       4.38 kcal/mol

--------
ENTHALPY
--------

The enthalpy is H = U + kB*T
                kB is Boltzmann's constant
Total free energy                 ...   -129.79971394 Eh
Thermal Enthalpy correction       ...      0.00094421 Eh       0.59 kcal/mol
-----------------------------------------------------------------------
Total Enthalpy                    ...   -129.79876974 Eh

Note: Rotational entropy computed according to Herzberg
Infrared and Raman Spectra, Chapter V,1, Van Nostrand Reinhold, 1945
Point Group:  Cinfv, Symmetry Number:   1
Rotational constants in cm-1:     0.000000     1.737578     1.737578

Vibrational entropy computed according to the QRRHO of S. Grimme
Chem.Eur.J. 2012 18 9955

-------
ENTROPY
-------

The entropy contributions are T*S = T*(S(el)+S(vib)+S(rot)+S(trans))
     S(el)   - electronic entropy
     S(vib)  - vibrational entropy
     S(rot)  - rotational entropy
     S(trans)- translational entropy
The entropies will be listed as multiplied by the temperature to get
units of energy

Electronic entropy                ...      0.00065446 Eh      0.41 kcal/mol
Vibrational entropy               ...      0.00000057 Eh      0.00 kcal/mol
Rotational entropy                ...      0.00545861 Eh      3.43 kcal/mol
Translational entropy             ...      0.01716637 Eh     10.77 kcal/mol
-----------------------------------------------------------------------
Final entropy term                ...      0.02328001 Eh     14.61 kcal/mol

-------------------
GIBBS FREE ENERGY
-------------------

The Gibbs free energy is G = H - T*S

Total enthalpy                    ...   -129.79876974 Eh
Total entropy correction          ...     -0.02328001 Eh    -14.61 kcal/mol
-----------------------------------------------------------------------
Final Gibbs free energy         ...   -129.82204974 Eh

For completeness - the Gibbs free energy minus the electronic energy
G-E(el)                           ...     -0.01534909 Eh     -9.63 kcal/mol

                             ****ORCA TERMINATED NORMALLY****
TOTAL RUN TIME: 0 days 0 hours 0 minutes 6 seconds 929 msec
