                         Program Version 5.0.1 -  RELEASE  -
|  1>
|  2> %pal
|  3>   nprocs 6
|  4> end
|  5> %maxcore 2000
|  6>
|  7> ! B3LYP aug-cc-pVTZ VeryTightSCF
|  8> ! RIJCOSX def2/J
|  9>
| 10> * xyzfile 0 1 phosphine.xyz
| 11>
| 12>
| 13>                          ****END OF INPUT****

CARTESIAN COORDINATES (ANGSTROEM)
---------------------------------
  P     -0.092768   -0.131096    0.227150
  H     -0.395501    1.225554   -0.061679
  H     -0.395627   -0.559549   -1.091980
  H      1.287226    0.035481   -0.061462

 Total Charge           Charge          ....    0
 Multiplicity           Mult            ....    1
 Number of Electrons    NEL             ....   18
 Basis Dimension        Dim             ....  119

ORBITAL ENERGIES
----------------

  NO   OCC          E(Eh)            E(eV)
   0   2.0000     -77.085910     -2097.6143
   1   2.0000      -6.550881      -178.2585
   2   2.0000      -4.711976      -128.2194
   3   2.0000      -4.711972      -128.2193
   4   2.0000      -4.710423      -128.1771
   5   2.0000      -0.645734       -17.5713
   6   2.0000      -0.384764       -10.4700
   7   2.0000      -0.384748       -10.4695
   8   2.0000      -0.279194        -7.5973
   9   0.0000      -0.013971        -0.3802
  10   0.0000       0.012686         0.3452
  11   0.0000       0.012696         0.3455
  12   0.0000       0.027240         0.7412
  13   0.0000       0.027240         0.7413

MULLIKEN ATOMIC CHARGES
-----------------------
   0 P :   -0.069072
   1 H :    0.022736
   2 H :    0.023052
   3 H :    0.023284
Sum of atomic charges:   -0.0000000

LOEWDIN ATOMIC CHARGES
----------------------
   0 P :    1.325336
   1 H :   -0.441751
   2 H :   -0.441799
   3 H :   -0.441786

  Mayer bond orders larger than 0.100000
B(  0-P ,  1-H ) :   0.9799 B(  0-P ,  2-H ) :   0.9797 B(  0-P ,  3-H ) :   0.9794

FINAL SINGLE POINT ENERGY      -343.113038393730

DIPOLE MOMENT
-------------
                                X             Y             Z
Electronic contribution:     -0.60597      -0.85673       1.48404
Nuclear contribution   :      0.68242       0.96474      -1.67130
                        -----------------------------------------
Total Dipole Moment    :      0.07645       0.10800      -0.18725
                        -----------------------------------------
Magnitude (a.u.)       :      0.22929
Magnitude (Debye)      :      0.58280

Rotational constants in cm-1:     4.445043     4.444854     3.936882
Rotational constants in MHz : 133259.033668 133253.369889 118024.763384

                             ****ORCA TERMINATED NORMALLY****
TOTAL RUN TIME: 0 days 0 hours 0 minutes 2 seconds 273 msec
