                         Program Version 5.0.1 -  RELEASE  -
|  1>
|  2> %pal
|  3>   nprocs 6
|  4> end
|  5> %maxcore 2000
|  6>
|  7> ! MP2 aug-cc-pVTZ VeryTightSCF
|  8> ! RIJCOSX def2/J aug-cc-pVTZ/C
|  9>
| 10> %mp2
| 11>   density unrelaxed
| 12> end
| 13>
| 14> * xyzfile 0 1 phosphine.xyz
| 15>
| 16>
| 17>                          ****END OF INPUT****

CARTESIAN COORDINATES (ANGSTROEM)
---------------------------------
  P     -0.092768   -0.131096    0.227150
  H     -0.395501    1.225554   -0.061679
  H     -0.395627   -0.559549   -1.091980
  H      1.287226    0.035481   -0.061462

 Total Charge           Charge          ....    0
 Multiplicity           Mult            ....    1
 Number of Electrons    NEL             ....   18
 Basis Dimension        Dim             ....  119

ORBITAL ENERGIES
----------------

  NO   OCC          E(Eh)            E(eV)
   0   2.0000     -79.946906     -2175.4659
   1   2.0000      -7.489293      -203.7940
   2   2.0000      -5.383578      -146.4946
   3   2.0000      -5.381890      -146.4487
   4   2.0000      -5.381860      -146.4479
   5   2.0000      -0.855033       -23.2666
   6   2.0000      -0.520070       -14.1518
   7   2.0000      -0.520036       -14.1509
   8   2.0000      -0.389191       -10.5904
   9   0.0000       0.029022         0.7897
  10   0.0000       0.053583         1.4581
  11   0.0000       0.053584         1.4581
  12   0.0000       0.081346         2.2135
  13   0.0000       0.090149         2.4531

MULLIKEN ATOMIC CHARGES
-----------------------
   0 P :   -0.244108
   1 H :    0.080212
   2 H :    0.081467
   3 H :    0.082429
Sum of atomic charges:    0.0000000

LOEWDIN ATOMIC CHARGES
----------------------
   0 P :    1.305515
   1 H :   -0.435187
   2 H :   -0.435175
   3 H :   -0.435153

  Mayer bond orders larger than 0.100000
B(  0-P ,  1-H ) :   0.9369 B(  0-P ,  2-H ) :   0.9361 B(  0-P ,  3-H ) :   0.9349

MP2 TOTAL ENERGY:     -342.661438604 Eh
FINAL SINGLE POINT ENERGY      -342.661438604197

DIPOLE MOMENT
-------------
                                X             Y             Z
Electronic contribution:     -0.59356      -0.83929       1.45361
Nuclear contribution   :      0.68242       0.96474      -1.67130
                        -----------------------------------------
Total Dipole Moment    :      0.08886       0.12545      -0.21769
                        -----------------------------------------
Magnitude (a.u.)       :      0.26650
Magnitude (Debye)      :      0.67739

Rotational constants in cm-1:     4.445043     4.444854     3.936882
Rotational constants in MHz : 133259.033668 133253.369889 118024.763384

                             ****ORCA TERMINATED NORMALLY****
TOTAL RUN TIME: 0 days 0 hours 0 minutes 4 seconds 79 msec
