                         Program Version 5.0.1 -  RELEASE  -
|  1>
|  2> %pal
|  3>   nprocs 6
|  4> end
|  5> %maxcore 2000
|  6>
|  7> ! PBE aug-cc-pVTZ VeryTightSCF
|  8> ! RIJCOSX def2/J
|  9>
| 10> * xyzfile 0 1 hydrogen_sulfide.xyz
| 11>
| 12>
| 13>                          ****END OF INPUT****

CARTESIAN COORDINATES (ANGSTROEM)
---------------------------------
  S     -0.055330   -0.078266    0.000000
  H     -0.308816    1.238733    0.000000
  H      1.270816    0.121753    0.000000

 Total Charge           Charge          ....    0
 Multiplicity           Mult            ....    1
 Number of Electrons    NEL             ....   18
 Basis Dimension        Dim             ....   96

ORBITAL ENERGIES
----------------

  NO   OCC          E(Eh)            E(eV)
   0   2.0000     -88.090047     -2397.0521
   1   2.0000      -7.689329      -209.2373
   2   2.0000      -5.712109      -155.4344
   3   2.0000      -5.708956      -155.3486
   4   2.0000      -5.703016      -155.1870
   5   2.0000      -0.681005       -18.5311
   6   2.0000      -0.406003       -11.0479
   7   2.0000      -0.332999        -9.0614
   8   2.0000      -0.231728        -6.3057
   9   0.0000      -0.031821        -0.8659
  10   0.0000      -0.019820        -0.5393
  11   0.0000       0.022247         0.6054
  12   0.0000       0.040082         1.0907
  13   0.0000       0.046102         1.2545

MULLIKEN ATOMIC CHARGES
-----------------------
   0 S :   -0.230266
   1 H :    0.115120
   2 H :    0.115146
Sum of atomic charges:   -0.0000000

LOEWDIN ATOMIC CHARGES
----------------------
   0 S :    1.304508
   1 H :   -0.652232
   2 H :   -0.652275

  Mayer bond orders larger than 0.100000
B(  0-S ,  1-H ) :   1.0337 B(  0-S ,  2-H ) :   1.0336

FINAL SINGLE POINT ENERGY      -399.233156692567

DIPOLE MOMENT
-------------
                                X             Y             Z
Electronic contribution:     -0.72198      -1.02107       0.00000
Nuclear contribution   :      0.94773       1.34033       0.00000
                        -----------------------------------------
Total Dipole Moment    :      0.22575       0.31926       0.00000
                        -----------------------------------------
Magnitude (a.u.)       :      0.39101
Magnitude (Debye)      :      0.99387

Rotational constants in cm-1:    10.298825     8.936361     4.784670
Rotational constants in MHz : 308750.999349 267905.376974 143440.801607

                             ****ORCA TERMINATED NORMALLY****
TOTAL RUN TIME: 0 days 0 hours 0 minutes 57 seconds 316 msec
