                         Program Version 5.0.1 -  RELEASE  -
|  1>
|  2> %pal
|  3>   nprocs 6
|  4> end
|  5> %maxcore 2000
|  6>
|  7> ! MP2 aug-cc-pVTZ VeryTightSCF
|  8> ! RIJCOSX def2/J aug-cc-pVTZ/C
|  9>
| 10> %mp2
| 11>   density unrelaxed
| 12> end
| 13>
| 14> * xyzfile 0 1 acetaldehyde.xyz
| 15>
| 16>
| 17>                          ****END OF INPUT****

CARTESIAN COORDINATES (ANGSTROEM)
---------------------------------
  C      1.441762   -0.020280   -0.257814
  C     -0.037836    0.035108   -0.055494
  O     -0.728246    0.982027   -0.313173
  H      1.812983    0.916060   -0.671732
  H      1.931960   -0.232329    0.697630
  H      1.686979   -0.852469   -0.925179
  H     -0.490353   -0.889736    0.366481

 Total Charge           Charge          ....    0
 Multiplicity           Mult            ....    1
 Number of Electrons    NEL             ....   24
 Basis Dimension        Dim             ....  230

ORBITAL ENERGIES
----------------

  NO   OCC          E(Eh)            E(eV)
   0   2.0000     -20.560049      -559.4674
   1   2.0000     -11.335186      -308.4461
   2   2.0000     -11.242323      -305.9192
   3   2.0000      -1.400900       -38.1204
   4   2.0000      -1.023857       -27.8606
   5   2.0000      -0.800724       -21.7888
   6   2.0000      -0.677850       -18.4452
   7   2.0000      -0.628246       -17.0954
   8   2.0000      -0.606453       -16.5024
   9   2.0000      -0.562581       -15.3086
  10   2.0000      -0.507582       -13.8120
  11   2.0000      -0.426346       -11.6015
  12   0.0000       0.026935         0.7329
  13   0.0000       0.039155         1.0655
  14   0.0000       0.042886         1.1670
  15   0.0000       0.053629         1.4593
  16   0.0000       0.088935         2.4200

MULLIKEN ATOMIC CHARGES
-----------------------
   0 C :   -0.707897
   1 C :   -0.090824
   2 O :   -0.599008
   3 H :    0.338478
   4 H :    0.292846
   5 H :    0.286199
   6 H :    0.480206
Sum of atomic charges:   -0.0000000

LOEWDIN ATOMIC CHARGES
----------------------
   0 C :    0.549554
   1 C :   -0.253186
   2 O :    0.434101
   3 H :   -0.183691
   4 H :   -0.180928
   5 H :   -0.180943
   6 H :   -0.184907

  Mayer bond orders larger than 0.100000
B(  0-C ,  1-C ) :   0.8263 B(  0-C ,  3-H ) :   0.8396 B(  0-C ,  4-H ) :   0.8788
B(  0-C ,  5-H ) :   0.8830 B(  1-C ,  2-O ) :   1.5517 B(  1-C ,  6-H ) :   0.6521

MP2 TOTAL ENERGY:     -153.554049702 Eh
FINAL SINGLE POINT ENERGY      -153.554049702198

DIPOLE MOMENT
-------------
                                X             Y             Z
Electronic contribution:     -2.90955       1.39070      -0.09242
Nuclear contribution   :      3.75362      -2.24617       0.29177
                        -----------------------------------------
Total Dipole Moment    :      0.84407      -0.85547       0.19935
                        -----------------------------------------
Magnitude (a.u.)       :      1.21820
Magnitude (Debye)      :      3.09643

Rotational constants in cm-1:     1.917540     0.341732     0.306399
Rotational constants in MHz : 57486.395924 10244.864772  9185.612312

                             ****ORCA TERMINATED NORMALLY****
TOTAL RUN TIME: 0 days 0 hours 0 minutes 31 seconds 353 msec
