                         Program Version 5.0.1 -  RELEASE  -
|  1>
|  2> %pal
|  3>   nprocs 6
|  4> end
|  5> %maxcore 2000
|  6>
|  7> ! MP2 aug-cc-pVTZ VeryTightSCF
|  8> ! RIJCOSX def2/J aug-cc-pVTZ/C
|  9>
| 10> %mp2
| 11>   density unrelaxed
| 12> end
| 13>
| 14> * xyzfile 0 1 ammonia.xyz
| 15>
| 16>
| 17>                          ****END OF INPUT****

CARTESIAN COORDINATES (ANGSTROEM)
---------------------------------
  N     -0.008597   -0.012177    0.021074
  H     -0.326859   -0.462229   -0.828075
  H     -0.326855    0.948260   -0.013741
  H      1.002981    0.007926   -0.013728

 Total Charge           Charge          ....    0
 Multiplicity           Mult            ....    1
 Number of Electrons    NEL             ....   10
 Basis Dimension        Dim             ....  115

ORBITAL ENERGIES
----------------

  NO   OCC          E(Eh)            E(eV)
   0   2.0000     -15.541550      -422.9071
   1   2.0000      -1.141691       -31.0670
   2   2.0000      -0.629173       -17.1207
   3   2.0000      -0.629144       -17.1199
   4   2.0000      -0.428414       -11.6577
   5   0.0000       0.030288         0.8242
   6   0.0000       0.049459         1.3459
   7   0.0000       0.049460         1.3459
   8   0.0000       0.118414         3.2222
   9   0.0000       0.152726         4.1559

MULLIKEN ATOMIC CHARGES
-----------------------
   0 N :   -0.599150
   1 H :    0.201229
   2 H :    0.199936
   3 H :    0.197986
Sum of atomic charges:    0.0000000

LOEWDIN ATOMIC CHARGES
----------------------
   0 N :    1.080623
   1 H :   -0.360230
   2 H :   -0.360211
   3 H :   -0.360182

  Mayer bond orders larger than 0.100000
B(  0-N ,  1-H ) :   0.9076 B(  0-N ,  2-H ) :   0.9094 B(  0-N ,  3-H ) :   0.9116

MP2 TOTAL ENERGY:      -56.460683069 Eh
FINAL SINGLE POINT ENERGY       -56.460683068981

DIPOLE MOMENT
-------------
                                X             Y             Z
Electronic contribution:     -0.08352      -0.11834       0.20493
Nuclear contribution   :      0.28927       0.40915      -0.70862
                        -----------------------------------------
Total Dipole Moment    :      0.20575       0.29081      -0.50369
                        -----------------------------------------
Magnitude (a.u.)       :      0.61693
Magnitude (Debye)      :      1.56812

Rotational constants in cm-1:     9.993697     9.993429     6.304550
Rotational constants in MHz : 299603.509327 299595.452230 189005.660235

                             ****ORCA TERMINATED NORMALLY****
TOTAL RUN TIME: 0 days 0 hours 0 minutes 4 seconds 140 msec
