                         Program Version 5.0.1 -  RELEASE  -
|  1>
|  2> %pal
|  3>   nprocs 6
|  4> end
|  5> %maxcore 2000
|  6>
|  7> ! DLPNO-CCSD aug-cc-pVTZ VeryTightSCF
|  8> ! RIJCOSX def2/J aug-cc-pVTZ/C
|  9> ! TightPNO
| 10>
| 11> %mdci
| 12>   density unrelaxed
| 13> end
| 14>
| 15> * xyzfile 0 1 dimethyl_ether.xyz
| 16>
| 17>
| 18>                          ****END OF INPUT****

CARTESIAN COORDINATES (ANGSTROEM)
---------------------------------
  C      1.421150    0.000215   -0.000736
  O      0.022185    0.015743    0.027526
  C     -0.474248    0.669427    1.160610
  H      1.836379    1.018259   -0.021558
  H      1.729003   -0.524689   -0.905319
  H      1.837060   -0.522263    0.872917
  H     -0.149575    0.174382    2.087263
  H     -1.562882    0.642173    1.108511
  H     -0.145733    1.718173    1.198445

 Total Charge           Charge          ....    0
 Multiplicity           Mult            ....    1
 Number of Electrons    NEL             ....   26
 Basis Dimension        Dim             ....  276

ORBITAL ENERGIES
----------------

  NO   OCC          E(Eh)            E(eV)
   0   2.0000     -20.557622      -559.4013
   1   2.0000     -11.269392      -306.6558
   2   2.0000     -11.269347      -306.6545
   3   2.0000      -1.380749       -37.5721
   4   2.0000      -0.970221       -26.4011
   5   2.0000      -0.872820       -23.7506
   6   2.0000      -0.661733       -18.0067
   7   2.0000      -0.653233       -17.7754
   8   2.0000      -0.643796       -17.5186
   9   2.0000      -0.548173       -14.9166
  10   2.0000      -0.526071       -14.3151
  11   2.0000      -0.482034       -13.1168
  12   2.0000      -0.423947       -11.5362
  13   0.0000       0.031048         0.8448
  14   0.0000       0.041182         1.1206
  15   0.0000       0.046317         1.2603
  16   0.0000       0.047926         1.3041
  17   0.0000       0.063401         1.7252

E(0)                                       ...   -154.129224924
E(0)                                       ...   -154.129224924
E(CORR)(strong-pairs)                      ...     -0.637478116
E(CORR)(weak-pairs)                        ...     -0.000436718
E(CORR)(corrected)                         ...     -0.637914835
E(TOT)                                     ...   -154.767139758

MULLIKEN ATOMIC CHARGES
-----------------------
   0 C :   -0.809750
   1 O :   -0.417811
   2 C :   -0.815978
   3 H :    0.326733
   4 H :    0.365795
   5 H :    0.329600
   6 H :    0.327273
   7 H :    0.363505
   8 H :    0.330634
Sum of atomic charges:    0.0000000

LOEWDIN ATOMIC CHARGES
----------------------
   0 C :    0.270104
   1 O :    0.542952
   2 C :    0.269856
   3 H :   -0.178242
   4 H :   -0.184796
   5 H :   -0.178353
   6 H :   -0.178369
   7 H :   -0.184836
   8 H :   -0.178315

  Mayer bond orders larger than 0.100000
B(  0-C ,  1-O ) :   0.9318 B(  0-C ,  3-H ) :   0.8194 B(  0-C ,  4-H ) :   0.8348
B(  0-C ,  5-H ) :   0.8104 B(  1-O ,  2-C ) :   0.9470 B(  2-C ,  6-H ) :   0.8133
B(  2-C ,  7-H ) :   0.8405 B(  2-C ,  8-H ) :   0.8090

FINAL SINGLE POINT ENERGY      -154.767139758265

DIPOLE MOMENT
-------------
                                X             Y             Z
Electronic contribution:     -1.16000      -0.82004      -1.41969
Nuclear contribution   :      1.45098       1.02567       1.77571
                        -----------------------------------------
Total Dipole Moment    :      0.29098       0.20562       0.35602
                        -----------------------------------------
Magnitude (a.u.)       :      0.50369
Magnitude (Debye)      :      1.28028

Rotational constants in cm-1:     1.317439     0.339128     0.300454
Rotational constants in MHz : 39495.829313 10166.792810  9007.384184

                             ****ORCA TERMINATED NORMALLY****
TOTAL RUN TIME: 0 days 0 hours 4 minutes 18 seconds 877 msec
